% Model:              oval_geometry.mph
% Version:            COMSOL 6.2.0.339
% Date:               Mar 3 2025, 20:09
% Dimension:          2
% Nodes:              3514
% Expressions:        1
% Description:        Surface
% X                       Y                        Dependent variable u
-2.9227417131827504       0.5341824326101531       0.7389935480556392
-2.9479108429288305       0.5795835108808878       0.5308024023834443
-2.97307997267491         0.6249845891516222       0.37791713341797006
-2.99824910242099         0.6703856674223567       0.28033774115921645
-2.9956920266517666       0.5154758624470458       0.45823995905684445
-3.0208611563978462       0.5645331536976419       0.3234792087085069
-3.0460302861439246       0.6135904449482378       0.24402433506688978
-3.0686423401207805       0.5040817182436614       0.25027238982108574
-3.0938114698668593       0.5567952224741191       0.18894203479660543
-3.141592653589793        0.5                      0.11509084034836321
-2.838166099632635        0.7410190383424174       0.46145172661196343
-2.8663579708160074       0.6720735030983294       0.5782736440296736
-2.894549841999379        0.6031279678542412       0.6707875845108988
-2.7767476472544987       0.7086637287199317       0.5997073941360246
-2.8049395184378714       0.6369754381490493       0.9422268076162211
-2.8331313896212427       0.5652871475781668       1.2604382441599322
-2.7153291948763623       0.6763084190974459       1.1519435167590846
-2.7435210660597353       0.6018773731997693       1.7201604263017674
-2.653910742498226        0.6439531094749601       2.118160094481144
-2.6585378632827106       0.9565952171326997       0.24951176022487023
-2.6569954896878825       0.8523811812467865       0.08591954378203359
-2.655453116093054        0.7481671453608734       0.708802321867458
-2.5405844298793108       0.909262234644317        0.1555457997249939
-2.539042056284483        0.8055848737177402       0.824675000725563
-2.5374996826896545       0.7019075127911631       2.280279196254393
-2.4226309964759114       0.8619292521559343       0.45404917309468285
-2.4210886228810837       0.758788566188694        1.9558997915386576
-2.3046775630725125       0.8145962696675516       1.1450218803339371
-2.238127087383361        1.2035523936935686       0.33268803929173135
-2.2603105792797447       1.0739003523515631       -0.21419078472796785
-2.282494071176129        0.9442483110095573       0.05658716228610075
-2.1206439913925856       1.1234879330991776       -0.08813374238528225
-2.1428274832889707       0.9992246003781328       0.4890638412881545
-2.1650109751853552       0.8749612676570878       1.883918195995359
-2.0031608954018103       1.0434234725047864       -0.03132413890407795
-2.0253443872981967       0.9245488484047025       1.669949852462495
-1.8856777994110354       0.9633590119103953       0.5031168497353443
-1.626307013861041        1.275069447096501        0.36491939447559574
-1.7127639423777057       1.1711659687011324       -0.08892370855586738
-1.7992208708943704       1.067262490305764        -0.04285789013595123
-1.5737464283095406       1.1820758953679724       -0.11930742569993749
-1.6602033568262062       1.0853007534564367       0.6598437812102134
-1.7466602853428712       0.9885256115449005       1.9389039095717435
-1.5211858427580405       1.089082343639444        -0.25071880356265663
-1.6076427712747068       0.9994355382117408       1.7614267132891082
-1.4686252572065401       0.9960887919109153       -0.02931473911256164
-0.17224958410702504      0.746915298955475        0.2614555282774175
-0.2310810731610985       0.6916150679509608       0.368613506817402
-0.289912562215172        0.6363148369464465       0.7296251173383377
-0.3487440512692455       0.5810146059419323       1.3444903598402247
-0.15070393897339565      0.6674689789255076       0.301415401364014
-0.20953542802746908      0.6087068452599679       0.5196514779575254
-0.2683669170815425       0.549944711594428        0.9917411865319881
-0.12915829383976626      0.5880226588955401       0.31569716740738984
-0.18798978289383964      0.5257986225689748       0.6450113420544283
-0.10761264870613685      0.5085763388655725       0.30430082640754513
-0.38493574445862827      0.8906719706108668       0.31004989845330216
-0.47429952357368094      0.8357354462922857       0.2267277064631479
-0.5636633026887335       0.7807989219737046       0.7829360094809984
-0.6530270818037863       0.7258623976551235       1.9786748075068539
-0.37287184672883406      0.7874528490545554       0.3071084199768643
-0.46223562584388667      0.7311406631724265       0.9948111682802745
-0.5515994049589393       0.6748284772902975       2.322044411591689
-0.36080794899903973      0.6842337274982438       0.6519219071058384
-0.4501717281140924       0.6265458800525673       2.110649595702813
-4.3689888814637813E-4    0.6682280250057192       0.1038889431198958
-0.036162148827476544     0.6150107962923369       0.14676589761983472
-0.07188739876680669      0.5617935675789547       0.21356985871571782
0.03557961705120224       0.6150107963040871       0.07880931063564414
-1.4563288812787303E-4    0.5579806322202937       0.11099798525520295
-0.035870882827457984     0.5009504681365002       0.16711366647070588
0.07159613299055084       0.5617935676024548       0.054807963775274186
0.03587088305122079       0.5009504681482504       0.07630835851445289
0.10761264892989947       0.5085763389008227       0.031884902538785995
-1.045637210371194        0.9008215772670907       1.123816349605044
-1.0461373990449685       1.0106532552963021       0.20520276515713398
-1.0466375877187428       1.1204849333255131       -0.13401516168283104
-1.0471377763925176       1.2303166113547244       0.10616256908514886
-1.1866332259829764       0.9460725256520893       1.0700467539671117
-1.1871334146567507       1.0491565985961053       0.28135914555047914
-1.1876336033305248       1.1522406715401212       0.07206719474179132
-1.3276292415947586       0.9778282638666974       0.6856697243945764
-1.328129430268533        1.0741647317255185       0.026908092009221264
-0.6539607866130961       0.8600145510532378       0.32626599430421155
-0.6548944914224057       0.9941667044513518       -0.20283597604361792
-0.6558281962317156       1.128318857849466        0.39136889646336565
-0.783897124659589        0.7903263903052282       2.0624989443670363
-0.7848308294688988       0.9214064106469513       0.4032471671680593
-0.7857645342782084       1.0524864309886741       -0.13269776717610537
-0.9147671675153914       0.8486461168425505       1.777546125066433
-0.9157008723247013       0.9766540041278826       0.11145138387112094
0.16864638305001134       0.7456478061278912       0.022321366069509286
0.14830180500997406       0.6666239837188683       0.02552867311648684
0.12795722696993675       0.5876001613098454       0.028716518606245734
0.22867893919645005       0.6907700727629846       0.00986795949983084
0.2083343611564128        0.6082843476951836       0.011157710621196486
0.18798978311637543       0.5257986226273824       0.012428000185343482
0.2887114953428887        0.6358923393980781       0.0028602499225281555
0.26836691730285145       0.5499447116714989       0.002232445118281898
0.34874405148932736       0.5810146060331718       0.001298237337601234
0.3961891551501749        0.910080912647803        0.0016211882368278544
0.38037412059655906       0.8003921437762591       0.0015826088428966283
0.3645590860429432        0.6907033749047155       0.001474958543154421
0.4818017974652587        0.8486747410320507       4.027509665319986E-4
0.4659867629116429        0.7376103105996032       3.6984448103393586E-4
0.45017172835802693       0.6265458801671557       2.6786708972489177E-4
0.5674144397803424        0.7872685694162983       -1.0306464838367488E-4
0.5515994052267266        0.6748284774229474       -1.302982254485748E-4
0.6530270820954261        0.7258623978005461       1.0374139208083376E-4
1.0456372104480272        0.9008215772948329       2.145988111909092E-5
0.9365939294427609        0.9877066342072942       -2.4901174176766452E-5
0.8275506484374946        1.0745916911197553       2.437267223318836E-5
0.7185073674322283        1.1614767480322166       1.692814203489554E-4
0.9147671676638277        0.8486461169068138       -1.4122162211681858E-5
0.8057238866585611        0.9324590407642367       5.395589744082485E-6
0.6966806056532943        1.0162719646216596       1.2054824340565894E-4
0.7838971248796274        0.7903263904087181       1.3305008108899088E-5
0.6748538438743604        0.871067181211103        9.870156731628504E-5
1.1866332262071337        0.9460725257143062       7.482920422799909E-7
1.3276292419662397        0.9778282639328784       -3.906133139346202E-6
1.4686252577253458        0.9960887919505493       7.496605574212345E-6
1.0805513029889493        1.0372448995763635       2.2770206553843637E-5
1.2215473187480559        1.0757482428953864       -9.541713475886658E-8
1.362543334507162         1.1007563760135075       -6.903876928176638E-6
1.1154653955298715        1.1736682218578942       2.575096174749304E-5
1.2564614112889783        1.2054239600764665       7.313034470989612E-7
1.1503794880707938        1.3100915441394247       3.0402146700039135E-5
2.9060841012767007        0.754954671845818        0.010619412759533776
2.822026315017189         0.7179541510555418       0.0033095471871383087
2.7379685287576776        0.6809536302652657       -7.72832404153873E-5
2.653910742498166         0.6439531094749894       4.589214768726879E-4
2.9116366385787087        0.6813639254339324       0.009803254418237064
2.8275788523191974        0.6416206493168617       0.0028445933997382224
2.7435210660596847        0.6018773731997908       -1.9103247391885324E-4
2.917189175880717         0.6077731790220468       0.008877751733333987
2.833131389621205         0.5652871475781817       0.002270295268731764
2.9227417131827247        0.5341824326101612       0.007842904704824535
3.0280027804097527        0.6292032821964975       0.03756943343124053
2.992915758000743         0.5975296656677187       0.022759332120682305
2.957828735591734         0.5658560491389399       0.012850489211876972
3.0658660714697663        0.5861355214643317       0.05599020008963786
3.0307790490607567        0.5508056919556905       0.035000214876525236
2.995692026651747         0.5154758624470493       0.018911488065165506
3.103729362529779         0.5430677607321658       0.08183066906201207
3.0686423401207708        0.5040817182436624       0.05466079994634506
3.141592653589793         0.5                      0.1150908403483632
1.8856777994108653        0.963359011910435        6.553634275185842E-6
1.8498068034967006        1.0855748598021717       4.983639039264909E-6
1.8139358075825356        1.2077907076939085       3.907025684645325E-6
1.778064811668371         1.3300065555856455       3.3237942113270908E-6
1.746660285515692         0.9885256115221818       -8.811180809546433E-7
1.7107892896015273        1.1036131229480644       -1.1127706836155183E-6
1.6749182936873626        1.2187006343739466       -8.510414049750457E-7
1.6076427716205186        0.9994355382022198       -5.667943146124765E-7
1.5717717757063545        1.1073947131622484       5.39895715986705E-7
2.3046775630724246        0.8145962696675919       3.088832489841149E-5
2.3046209265134876        0.9198584445700482       2.644733170585441E-5
2.30456428995455          1.0251206194725044       2.7481666651723675E-5
2.304507653395614         1.1303827943749607       3.399132973601929E-5
2.1650109751852384        0.874961267657134        4.0233933434339235E-6
2.1649543386263015        0.9748347339386266       1.3958586770127364E-6
2.1648977020673645        1.0747082002201187       4.243652149017892E-6
2.0253443872980514        0.9245488484047484       -4.088170197641296E-6
2.0252877507391154        1.0190336060652772       -4.9022463379265915E-6
2.6730259543492814        0.9346448044020741       4.662090062229631E-4
2.550243157256996         0.8946286261572467       1.0740262324293241E-4
2.4274603601647096        0.8546124479124193       -3.770427053191812E-5
2.666654217065576         0.8377475727597126       3.9707425159303983E-4
2.5438714199732906        0.7982680694742228       6.543281780085013E-5
2.4210886228810042        0.7587885661887328       -5.250912678615957E-5
2.6602824797818707        0.740850341117351        3.9464507514294807E-4
2.5374996826895853        0.7019075127911989       9.016859053859928E-5
-2.922741717319849        9.465817568620984        0.008106071890045675
-2.9956920294098324       9.484524138120884        0.019252199083048073
-3.0686423414998134       9.495918281913887        0.05485139747118866
-3.141592653589793        9.5                      0.11490366705446746
-2.933482837612827        9.408698281507096        0.010856412576850187
-3.006433149702809        9.423748638153551        0.02572127170858599
-3.0793834617927893       9.431486569093106        0.06503920203545999
-2.9442239579058045       9.35157899439321         0.013792648554328166
-3.0171742699957864       9.362973138186218        0.03237623962479737
-2.954965078198782        9.294459707279323        0.016914779822479617
-2.833131395815493        9.434712854824767        0.0021064380983488633
-2.843872516108471        9.374850812421357        0.0035653473091496776
-2.854613636401448        9.314988770017944        0.00521015181062396
-2.7435210743111367       9.398122630449503        -3.753455192255249E-4
-2.7542621946041144       9.33551783275657         -2.0786778442840833E-4
-2.6539107528067802       9.356046895495192        6.607210373225115E-4
-2.5595798026694876       9.016216331118368        4.003425401968075E-4
-2.474612396387591        9.072612134023533        3.334925156305207E-5
-2.389644990105693        9.1290079369287          -7.831895899634873E-5
-2.3046775838237967       9.185403739833866        6.533790851860518E-5
-2.591023452715252        9.129493185910643        4.280554523067498E-4
-2.506056046433355        9.1853523140772          4.085740111575789E-5
-2.421088640151458        9.241211442243753        -9.101557200087959E-5
-2.6224671027610156       9.242770040702919        5.148482846819844E-4
-2.53749969647912         9.298092494130863        1.074454709337559E-4
-2.271555920889673        8.847519678775761        3.749876259062003E-5
-2.142929890199952        8.910560117460555        2.252795586748149E-6
-2.01430385951023         8.973600556145351        -6.671243093199957E-6
-1.885677828820508        9.036640994830147        1.0726646550775719E-5
-2.282596475201048        8.960147699128463        4.824541061000739E-5
-2.1539704445113275       9.017799429602968        5.312363801896803E-6
-2.0253444138216063       9.07545116007747         -1.1298754682290042E-5
-2.293637029512422        9.072775719481164        5.7525125919335765E-5
-2.165010998822703        9.12503874174538         6.904999306986455E-6
-1.7612394344827322       8.734190183247811        6.36528616254562E-6
-1.6637013867838473       8.824097190657852        -2.00511055607712E-6
-1.5661633390849623       8.914004198067893        1.6371341068583248E-7
-1.4686252913860773       9.003911205477934        1.287175806283448E-5
-1.8027188992619911       8.835007120441924        7.006729236564157E-6
-1.7051808515631066       8.917785791573817        -2.186689719637147E-6
-1.607642803864222        9.000564462705707        -8.4088799045276E-7
-1.8441983640412494       8.935824057636035        8.460516032640857E-6
-1.7466603163423657       9.01147439248978         -1.5559251611390118E-6
-1.1571379391974912       8.707129430329537        4.8278651936564514E-5
-1.1199710448698914       8.837812422279711        4.047796345400141E-5
-1.0828041505422916       8.968495414229885        3.521652750293607E-5
-1.0456372562146923       9.09917840618006         3.2494344083368464E-5
-1.2609670565936864       8.806056688712337        2.6378712856879535E-6
-1.2238001622660875       8.92999207577496         2.7235445126996425E-7
-1.1866332679384881       9.053927462837585        4.460901483497138E-7
-1.3647961739898817       8.904983947095134        -9.16442667222206E-6
-1.3276292796622835       9.022171729270212        -6.094771858494947E-6
-0.9425578933087109       9.015392249153658        -4.008026388808522E-5
-0.8394785304027292       8.931606092127252        4.748675566487823E-5
-0.7363991674967478       8.847819935100848        2.951954027422589E-4
-0.91476721203168         9.151353864123715        -6.206696159024591E-6
-0.8116878491256984       9.070639840673959        -4.242291591565677E-6
-0.7086084862197166       8.989925817224197        1.5786374050031027E-4
-0.7838971678486671       9.209673589220658        1.581329970910827E-5
-0.6808178049426855       9.132031699347547        9.23167168154797E-5
-0.6530271236656542       9.274137581470892        9.855433168776707E-5
-0.5717042467359112       9.20936040365622         -9.131740911484275E-5
-0.4903813698061684       9.144583225841547        3.7777976888884914E-4
-0.4090584928764255       9.079806048026875        0.0015058458656988427
-0.5515994451746534       9.325171502763475        -1.1708740510435414E-4
-0.4702765682449106       9.25901866384915         3.433968929756528E-4
-0.3889536913151677       9.192865824934826        0.0014628501098619612
-0.4501717666836526       9.373454101856753        2.698049066301685E-4
-0.36884888975391         9.305925601842777        0.0013806452435927916
-0.34874408819265207      9.418985378750728        0.0012592312668913352
-0.2913746869069811       9.362242054343026        0.002751755018735951
-0.23400528562131         9.305498729935325        0.009035188779170537
-0.17663588433563898      9.248755405527621        0.02010953254819509
-0.2683669527903402       9.450055275983607        0.002217341795043569
-0.21099755150466926      9.389850049149642        0.010486508748080107
-0.15362815021899828      9.329644822315672        0.023546585709706618
-0.18798981738802847      9.474201368363955        0.012070058482638802
-0.13062041610235764      9.410534239103725        0.027115868636867265
-0.10761268198571691      9.491423655891776        0.03081738132967704
-0.07397631078229322      9.430355193736759        0.05270353608546629
-0.04033993957886951      9.369286731581742        0.07389643951694697
-0.006703568375445816     9.308218269426726        0.09439609162411902
-0.035870894030104024     9.499049531275237        0.07566448823918792
-0.002234522826680385     9.434168131431239        0.10617950031450586
0.031401848376743265      9.369286731587236        0.13600126106551522
0.035870893925508754      9.499049531280725        0.16345119969930683
0.06950726512893235       9.430355193747745        0.20259506909415348
0.10761268188112144       9.491423655908251        0.29417751571003387
0.1260262728684415        9.407501040751793        0.294779981166743
0.14443986385576155       9.323578425595333        0.2766821176065058
0.1628534548430816        9.239655810438872        0.2398839250293223
0.18798981728400493       9.474201368391258        0.6310432024462962
0.20640340827132497       9.386816850807483        0.48800386888721314
0.224816999258645         9.299432333223708        0.3262642063111835
0.26836695268688837       9.450055276019633        0.9842187414017171
0.28678054367420847       9.359208856008546        0.6975376088268417
0.3487440880897718        9.41898537879338         1.3537041325762964
0.35519051532373996       9.305522848777011        0.5618481617902431
0.3616369425577081        9.192060318760639        0.2051235490712104
0.3680833697916764        9.078597788744267        0.2835302944191988
0.450171766569641         9.373454101910312        2.122414657350984
0.45661819380360924       9.258615910793054        0.9146054121595452
0.4630646210375774        9.143777719675793        0.14192752503512734
0.5515994450495102        9.325171502825466        2.2989630390236027
0.5580458722834786        9.20895765060732         0.6752005194267792
0.6530271235293795        9.274137581538845        1.8833492775941538
0.6502131122483487        9.130056199953222        0.21638233229402942
0.6473991009673177        8.985974818367596        -0.23243604279815772
0.6445850896862868        8.841893436781975        0.5368941523175926
0.7838971677457862        9.209673589269048        2.194337489417026
0.7810831564647549        9.0686643412607          0.3536693670450877
0.7782691451837234        8.92765509325235         -0.26885018511891356
0.9147672119621918        9.151353864153796        2.078393553424193
0.91195320068116          9.013416749722724        0.06402425398044065
1.0456372561785965        9.099178406193094        1.5355174696156546
1.0373741442112556        8.981662796939437        0.3993488417242038
1.0291110322439145        8.864147187685775        -0.11549128367619346
1.0208479202765737        8.746631578432117        -0.009002906585537053
1.186633267833673         9.053927462866678        0.7476435907251113
1.178370155866332         8.943159458493453        0.15268985643490604
1.1701070438989905        8.832391454120225        0.1790646246357543
1.3276292794887488        9.022171729301125        0.06074458400730212
1.3193661675214077        8.918151329808335        0.0070057433183425
1.4686252911438242        9.00391120549644         -0.5251795505377727
1.5169521734646065        8.881600513972534        -0.5971163300022182
1.5652790557853886        8.759289822448626        -0.23479911792010255
1.6136059381061707        8.636979130924718        0.5617720857085745
1.6076428037026473        9.000564462701261        2.2132985687143516
1.6559696860234296        8.885382107463888        0.7511569479226714
1.7042965683442113        8.770199752226512        -0.2767306813224473
1.7466603162614702        9.011474392479148        2.4577819663386697
1.7949871985822523        8.90342037352831         -0.39456449578024433
1.8856778288202927        9.036640994830101        0.2082706423351825
2.227824068005964         8.757765842861193        0.3632812491916932
2.253441906611838         8.900311808518719        -0.2659568626367602
2.279059745217711         9.042857774176245        -0.046260328600784745
2.3046775838235845        9.18540373983377         1.0223708512996197
2.1137753216107407        8.85072422685083         -0.07347498845509784
2.1393931602166143        8.987881484298061        0.45931162505612133
2.165010998822487         9.125038741745291        1.8410328844317694
1.9997265752155167        8.943682610840465        -0.12514519074060143
2.02534441382139          9.075451160077405        1.5696661481102903
2.594417441860301         8.998256760573994        0.2529210789697511
2.614248545509086         9.117520138881043        0.046996323018420785
2.6340796491578695        9.236783517188087        0.6310170281861831
2.6539107528066537        9.356046895495131        2.0049831944730383
2.497837489181396         9.060639086993922        0.0816647186224921
2.5176685928301805        9.179365790562352        0.8149070258676945
2.5374996964789642        9.298092494130781        2.33809479423199
2.40125753650249          9.123021413413845        0.3381479760657816
2.421088640151275         9.241211442243664        2.010557346507517
2.823137641628618         9.241820739182508        0.42119322557765193
2.856339000192339         9.316486348995328        0.5657551664899856
2.88954035875606          9.391151958808146        0.6698997497090416
2.9227417173197816        9.465817568620967        0.7336269752348205
2.7667286786879632        9.27989612462005         0.5961583235124848
2.799930037251684         9.357304489722393        0.9699884544110625
2.8331313958154043        9.434712854824735        1.303401227616363
2.7103197157473082        9.317971510057589        1.1240883131442803
2.743521074311029         9.398122630449457        1.7271866340291022
2.9452123817481604        9.415236121313386        0.5262349539127198
2.9676830461765387        9.364654674005804        0.37452148874385943
2.990153710604917         9.314073226698223        0.2784865797282389
2.9956920294097853        9.484524138120875        0.4564935460432991
3.018162693838164         9.430286477959845        0.323935525411295
3.0406333582665424        9.376048817798816        0.24705606093253074
3.068642341499789         9.495918281913886        0.25025244331651475
3.091113005928168         9.438024408899409        0.19252842337460696
3.141592653589793         9.5                      0.11490366705446745
-3.0460302861439246       0.6894824530582353       0.20538858513935704
-3.093811469866859        0.7085792386941139       0.14643835968968733
-3.141592653589793        0.7276760243299925       0.10348706481020742
-3.093811469866859        0.6326872305841164       0.16942779530282703
-3.141592653589793        0.6517840162199949       0.11083018610895394
-3.141592653589793        0.5758920081099974       0.11469811128833925
-2.957391076778504        0.8999787650719169       0.15271125015930773
-3.018791602382267        0.9442616693824621       0.11468346910404995
-3.0801921279860296       0.9885445736930072       0.08597415298594974
-3.1415926535897927       1.0328274780035522       0.06658330180500704
-3.0187916023822674       0.8425445181579422       0.15315314916101452
-3.08019212798603         0.8868274224684872       0.11074277107257358
-3.1415926535897927       0.9311103267790323       0.07765085792129015
-3.08019212798603         0.7851102712439673       0.13674508737798113
-3.1415926535897927       0.8293931755545123       0.08995211225635696
-2.9846297605401615       0.7469166999722101       0.23533308761477365
-2.9710104186593327       0.8234477325220635       0.19279092394813735
-3.0324109442630958       0.7660134856080887       0.17803962221128253
-2.9448881014915385       0.6939301243957103       0.34535038631806814
-2.9197189717454584       0.6485290461249757       0.48041604706112323
-2.8915271005620866       0.7174745813690638       0.4057217148023171
-2.8779077586812583       0.7940056139189173       0.29721663697421746
-2.917649417729881        0.8469921894954171       0.1943031448233322
-2.9312687596107097       0.7704611569455637       0.2685955206317969
-2.8973500467302973       1.2157253410892128       0.04979571371390141
-2.978764249016796        1.2908414746983876       0.043240030166216595
-3.0601784513032944       1.3659576083075624       0.0381271564683625
-3.141592653589793        1.4410737419167372       0.034457092620339115
-2.978764249016796        1.154759386727326        0.063556577990695
-3.0601784513032944       1.2298755203365006       0.05202121001000014
-3.1415926535897927       1.3049916539456754       0.041928651879135984
-3.0601784513032944       1.093793432365439        0.06915244068773022
-3.1415926535897927       1.1689095659746138       0.05263738827402531
-2.9987779256995313       1.049510528054894        0.08121263355975716
-2.937377400095768        1.005227623744349        0.10259129136894161
-2.9173637234130325       1.1104764824167808       0.0682861125538062
-2.7782900208493273       0.8128777646058449       0.3558498343729008
-2.7168715684711904       0.780522454983359        0.32533585057068
-2.718413942066019        0.8847364908692723       0.28520317891053637
-2.857773338946573        0.9188509157588446       0.14790619643836167
-2.758155601114642        0.9377230664457721       0.1801730331268825
-2.8377596622638372       1.0240997744312765       0.08504277350447065
-2.738141924431906        1.0429719251182041       0.10456614604946654
-2.8177459855811016       1.1293486331037084       0.037994130545810294
-2.81803167989795         0.8658643401823447       0.2212172166622009
-2.8221274051904373       1.6505010429725058       0.015167132848533925
-2.928615821323556        1.7383548278024044       0.017279490837336507
-3.0351042374566743       1.8262086126323025       0.018641948154824835
-3.141592653589793        1.914062397462201        0.019254504800998915
-2.928615821323556        1.5806919426205832       0.021777333450440778
-3.035104237456675        1.6685457274504814       0.022634487592164056
-3.141592653589793        1.7563995122803797       0.02274174106257308
-3.0351042374566743       1.5108828422686602       0.028207320041042504
-3.141592653589793        1.5987366270985583       0.027809270335686486
-2.953690035170176        1.4357667086594852       0.02862260753222839
-2.8722758328836773       1.3606505750503104       0.03048070487324498
-2.8472016190370573       1.505575809011408        0.018937844584789157
-2.5306816374771417       1.4267320666588552       0.04602517456342237
-2.627830226714907        1.5013217254300721       0.016746757102102345
-2.724978815952672        1.575911384201289        0.0064607431971395275
-2.652904440561527        1.3563964914689746       0.024080979452203784
-2.7500530297992922       1.4309861502401915       0.012013210240317863
-2.7751272436459122       1.2860609162790937       0.02533782583569679
-2.6955231824967165       1.1996842082935892       0.01856421494767746
-2.615919121347521        1.1133075003080848       0.09016420273140552
-2.573300379412331        1.2700197834834699       0.022335340844256243
-2.400447504579528        0.99158129349794         -0.11468466630278949
-2.378264012683144        1.1212333348399455       0.13423826533350575
-2.518400937982927        1.0389142759863226       0.10651283897788541
-2.4331634541125484       1.352338842337093        -0.03412745454392514
-2.4757821960477377       1.195626559161708        -0.009566655586177546
-2.3356452707479547       1.2779456180153308       0.061426833698844496
-2.1252548019376145       1.270647852730289        0.08402807998966383
-2.007771705946839        1.1905833921358977       -0.1081056020613371
-1.8902886099560638       1.1105189315415065       0.17739210104587977