% Model:              oval_geometry.mph
% Version:            COMSOL 6.2.0.339
% Date:               Mar 4 2025, 10:43
% Dimension:          2
% Nodes:              3139
% Expressions:        1
% Description:        Surface
% X:Y:Dependent variable u
-3.001562738051444:0.6678602591870488:0.3975687794276585
-3.048239376564227:0.6119068394580325:0.3571969255331318
-3.09491601507701:0.5559534197290162:0.28416515933488107
-3.141592653589793:0.5:0.17847348083290637
-2.9748903202116406:0.6234199073909741:0.5271055447610348
-3.0215669587244243:0.5637736569583709:0.46882105019694353
-3.068243597237208:0.5041274065257676:0.3778766433291281
-2.9482179023718365:0.5789795555948993:0.7287968271190471
-2.994894540884622:0.5156404744587093:0.6525996918853912
-2.921545484532033:0.5345392037988247:1.0026426265016957
-2.8539322867037553:0.7328720790751997:0.578775627749222
-2.8764700193131816:0.6667611206497414:0.7216584346822839
-2.899007751922607:0.600650162224283:0.8629474342664415
-2.7880180965222707:0.7028664144994262:0.7517771842243317
-2.810555829131698:0.6340769714291676:1.1790851750837252
-2.8330935617411237:0.5652875283589089:1.6047993585942146
-2.7221039063407866:0.6728607499236527:1.3018030566996797
-2.7446416389502146:0.601392822208594:2.013536231485405
-2.656189716159303:0.6428550853478795:2.2288532451752663
-2.558219376452619:0.691375755392786:2.2284957007459534
-2.4602490367459353:0.7396505344200283:1.9116362335498833
-2.362278697039252:0.7876794224296068:1.2782748435870572
-2.657384144984095:0.7591721254194271:0.7105024349605518
-2.559413805277412:0.8075698499555016:0.712131305530175
-2.461443465570728:0.8557216834739119:0.3972582533330412
-2.658578573808887:0.8754891654909744:0.0560965187337083
-2.560608234102204:0.923763944518217:0.05971180430226743
-2.6597730026336794:0.9918062055625219:0.2656354964947356
-2.325568551535032:1.0925283078984787:0.1973977361136954
-2.3378052667031053:0.990912012742188:-0.015273569460239915
-2.3500419818711786:0.8892957175858973:0.3450187996975473
-2.2359434899246895:1.033206159651293:-0.005008553136764294
-2.2481802050927633:0.9339466945056236:0.47418139783528385
-2.2604169202608366:0.8346872293599542:1.5263350235390545
-2.146318428314347:0.973884011404107:0.17934871022530738
-2.1585551434824213:0.8769813762690593:1.350399917743339
-2.056693366704005:0.914561863156921:0.7504695261999106
-1.7349134240918784:0.9899399070817589:0.4011239859217881
-1.7948045535674806:1.065289381634091:0.027548194547083925
-1.8546956830430825:1.1406388561864227:-0.025501589253347237
-1.9145868125186847:1.2159883307387545:0.24197463452049464
-1.8421734049625855:0.9725938783891863:1.155715561075798
-1.902064534438189:1.0440533599669983:0.38290898667727724
-1.9619556639137916:1.11551284154481:-0.06937158014697081
-1.9494333858332942:0.9474678637475735:1.272164074501839
-2.0093245153088986:1.0150373523508658:0.10012671707950128
-3.00111042744334:4.330049616408295:0.04628222005989611
-2.9745887798062527:4.3751866763392595:0.031797984293905686
-2.9480671321691654:4.420323736270224:0.02068063978008942
-2.921545484532078:4.465460796201189:0.012930186518447318
-3.0479378361588245:4.386699744272197:0.07486466747287351
-3.0214161885217385:4.4355296349067475:0.0515055407821016
-2.994894540884652:4.484359525541297:0.031513305343503856
-3.0947652448743086:4.443349872136099:0.11888031704479152
-3.0682435972372244:4.495872593474235:0.08664629942923814
-3.141592653589793:4.5:0.17832916877565014
-1.4046712329155842:0.9896933653229913:0.43480710789758054
-1.4312837558569147:1.0800652590028026:-0.011128095306306842
-1.4578962787982446:1.1704371526826138:-0.09599944273118793
-1.484508801739575:1.2608090463624253:0.18019306562293727
-1.5147519633076816:0.9988299088103794:1.0016654800044718
-1.5413644862490123:1.0846746210396245:0.31119252496070016
-1.5679770091903427:1.1705193332688697:-0.018216574304065317
-1.6248326936997795:0.998912089396635:0.9904377726792075
-1.6514452166411109:1.0802296201753145:0.05542706579555173
-2.8449397038874737:4.265029639305665:0.008251586529363348
-2.7820230413114406:4.295734731087828:0.002458651183309362
-2.7191063787354075:4.326439822869991:-8.274786174943021E-5
-2.6561897161593744:4.357144914652155:6.273893941869721E-4
-2.8704749641023417:4.331840024937506:0.009778571800712975
-2.807558301526309:4.3652236013644705:0.0032183938165349243
-2.7446416389502764:4.398607177791435:-9.024786664793532E-5
-2.8960102243172097:4.398650410569347:0.011338105130407634
-2.8330935617411783:4.434712471641114:0.004010684508105515
-1.082983444412623:0.9139119549555442:1.0521133151740292
-1.0761320440456361:0.9962184607028589:0.29419451473805036
-1.0692806436786488:1.0785249664501735:-0.024667050869994038
-1.062429243311662:1.160831472197488:0.09552861834989601
-1.1902127072469435:0.9469379634003696:0.9314042995323114
-1.1833613068799567:1.025361699986513:0.26226114452181354
-1.1765099065129694:1.1037854365726558:0.03217522433925004
-1.2974419700812638:0.972198433522852:0.725635563773495
-1.290590569714277:1.046739400947824:0.14526805418847827
-2.6643707976205424:4.257078042283607:6.040102953665761E-4
-2.67255187908171:4.157011169915058:7.940794976486771E-4
-2.680732960542879:4.056944297546509:0.0011975970010332756
-2.5582193764526946:4.308624244607253:1.2731255532366314E-4
-2.566400457913863:4.208680317747535:9.346115623876066E-5
-2.574581539375031:4.108736390887818:2.730580582563549E-4
-2.4602490367460152:4.260349465580012:-5.38640218726105E-5
-2.468430118207184:4.160528484229126:-9.818772122201984E-5
-2.3622786970393364:4.212320577570434:8.38596625981512E-5
-0.7774884304920637:0.786809921614188:1.4746831974963672
-0.7773681809752923:0.8845221342765488:0.39161540657340377
-0.7772479314585206:0.9822343469389094:-0.02831723639120137
-0.7771276819417491:1.0799465596012703:0.21488526860255197
-0.8793201017989171:0.8338684090727612:1.4795911017633547
-0.8791998522821455:0.9292350502293948:0.38746093560420547
-0.8790796027653738:1.0246016913860283:-0.0415340825965856
-0.98115177310577:0.8762357535198798:1.338734474322575
-0.9810315235889986:0.9692568231707863:0.23754193292724024
-0.3065909031360653:0.7886615569651763:0.46992360607809314
-0.36561591134019755:0.7397807639195655:0.5675916739416361
-0.42464091954432975:0.6908999708739546:1.1160054533745478
-0.48366592774846207:0.6420191778283437:2.115164944376829
-0.27729466884539705:0.7038205480100586:0.6422550454468339
-0.3363196770495294:0.6522505851772249:1.0805449791853998
-0.3953446852536617:0.600680622344391:1.9695806244933347
-0.24799843455472878:0.6189795390549406:0.8240043179391494
-0.3070234427588612:0.5647204064348842:1.6029161175527384
-0.21870220026406054:0.5341385300998228:1.01517142355504
-0.49691908035861443:0.8992639056343462:0.3041361039967188
-0.5904421970697643:0.8617792442942934:0.28597343316895885
-0.683965313780914:0.8242945829542406:0.6761557976688417
-0.49250136282189694:0.8135156630323456:0.34861568505580176
-0.5860244795330468:0.7761373190070654:0.984474266363058
-0.6795475962441967:0.738758974981785:2.028677882997957
-0.4880836452851795:0.7277674204303446:0.952291965182505
-0.5816067619963297:0.6904953937198371:2.2421717986247773
-0.14580146684270417:0.5154553715103275:0.6592679406006893
-0.07290073342134765:0.5040749395769774:0.3807106401172622
8.993174177378373E-15:0.4999972342997724:0.1794995221047588
-0.1749020470347716:0.5936942694279341:0.6379219369770182
-0.10200131361341519:0.5786624741665114:0.40013394321469403
-0.02910058019205858:0.5709334055612337:0.23969213192329336
-0.13110189380548268:0.6532500087560452:0.3916121617883309
-0.058201160384126184:0.6418695768226952:0.2719396572180332
-0.08730174057619373:0.7128057480841564:0.2762420979889782
-2.3627633109348802:4.105515286348019:6.73167709601458E-5
-2.3632479248304237:3.9987099951256018:6.132015814527444E-5
-2.363732538725967:3.8919047039031858:6.586982415353717E-5
-2.260416920260923:4.165312770640085:1.5097440635409727E-5
-2.260901534156466:4.06086430942829:8.635536743667288E-6
-2.2613861480520088:3.9564158482164933:1.27199116750589E-5
-2.1585551434825083:4.123018623730976:-1.0864139110318149E-5
-2.1590397573780513:4.020926992529803:-7.2450552557976224E-6
-2.056693366704093:4.085438136843109:5.974923360967586E-6
0.08591033760795037:0.6892165097150854:0.08223351837474883
0.05727355840530325:0.6261434179099811:0.10668373746045802
0.028636779202656115:0.5630703261048767:0.1391057387037947
0.13017429182665116:0.6375238498433304:0.050145545674345156
0.10153751262400397:0.5707993947101545:0.06436836014588079
0.07290073342135682:0.5040749395769784:0.08656295677504386
0.1744382460453519:0.5858311899715755:0.027042046921113637
0.14580146684270473:0.5154553715103278:0.031037456778475705
0.21870220026405268:0.5341385300998205:0.01292302211505427
-2.0632377606732546:4.003246626501094:4.460157062526062E-6
-2.069782154642416:3.9210551161590805:3.179515558194979E-6
-2.076326548611578:3.8388636058170666:2.1329988479743385E-6
-1.949433385833383:4.05253213625245:1.1340694030632869E-6
-1.955977779802546:3.974230618884957:7.44694647730321E-7
-1.9625221737717085:3.8959291015174626:5.89444686507796E-7
-1.842173404962675:4.027406121610831:-7.722294377348108E-7
-1.8487177989318393:3.952994597217859:-3.621264995921848E-8
-1.7349134240919695:4.010060092918254:2.560268385732948E-7
0.2692615089966361:0.7845781349236364:0.012528259670003804
0.252408406085775:0.7010982666490311:0.013102715056498347
0.2355553031749138:0.6176183983744258:0.01323430253818183
0.34072964858056354:0.7370584825585317:0.004162406336430359
0.3238765456697025:0.6508894444967042:0.004311452579706554
0.30702344275884136:0.5647204064348764:0.0040176309181716935
0.41219778816449093:0.689538830193427:1.9473900069751315E-4
0.3953446852536299:0.6006806223443772:-8.16238992446387E-5
0.4836659277484184:0.6420191778283223:6.252576628052681E-4
-1.706120565976042:3.9129768910129843:8.320698679460492E-8
-1.6773277078601139:3.8158936891077144:-7.015930229744554E-8
-1.6485348497441865:3.7188104872024454:-2.0407202870285658E-7
-1.6248326936998705:4.00108791060337:-2.8094729004620925E-7
-1.5960398355839436:3.908531890148666:-1.9260354811980524E-7
-1.567246977468016:3.815975869693963:-8.480624350676182E-8
-1.514751963307772:4.001170091189617:1.182859104194396E-7
-1.4859591051918457:3.913141252185481:4.6779324605093744E-7
-1.4046712329156748:4.010306634676997:1.4537264399702415E-6
0.5189817362693281:0.9573137320820959:7.252419505030471E-4
0.5072098000956915:0.852215547330838:6.606887913550939E-4
0.49543786392205486:0.7471173625795802:6.27360695455834E-4
0.605150634343558:0.9004791285927862:1.5658545129235255E-4
0.5933786981699214:0.7954872611563004:1.1778641825345121E-4
0.5816067619962846:0.6904953937198144:1.1021244846324292E-4
0.6913195324177879:0.8436445251034764:-6.466017276697696E-5
0.6795475962441513:0.7387589749817628:-7.770507969682686E-5
0.7774884304920177:0.7868099216141667:6.150507832505868E-5
-1.0829834444127073:4.086088045044428:9.003529733848914E-6
-1.1902127072470303:4.053062036599608:8.14294330581367E-7
-1.2974419700813526:4.027801566477131:-1.7023067673781908E-6
-1.1012384878050905:3.973442465757346:8.451495892343096E-6
-1.2084677506394133:3.9442992264736976:5.64929636762702E-7
-1.3156970134737354:3.9229215255123915:-1.6490023135097072E-6
-1.1194935311974734:3.860796886470263:7.922068926793768E-6
-1.226722794031796:3.8355364163477867:3.3817181890052577E-7
-1.1377485745898563:3.7481513071831802:7.415248837200938E-6
1.0829834444125717:0.9139119549555268:9.03652484277988E-6
0.9998890913627333:0.9994291180010334:-9.944267959916248E-6
0.9167947383128946:1.0849462810465398:7.308636428775128E-6
0.8337003852630562:1.1704634440920465:6.079523800885403E-5
0.9811517731057204:0.8762357535198599:-9.778986137637088E-6
0.898057420055882:0.9594073450596399:5.094373467007871E-6
0.8149630670060433:1.0425789365994198:5.62014302630403E-5
0.8793201017988691:0.8338684090727397:7.710531689789175E-6
0.7962257487490307:0.9146944291067934:5.643804370177518E-5
-1.0031011433514294:4.005119697550432:-9.851158388674417E-6
-0.9232188422901513:3.924151350056437:6.59084261642399E-6
-0.8433365412288734:3.8431830025624416:5.832953274914414E-5
-0.9811517731058543:4.1237642464800865:-9.48286930688014E-6
-0.9012694720445765:4.04514147049182:4.91266330812788E-6
-0.8213871709832984:3.966518694503552:5.460488505075759E-5
-0.8793201017990012:4.166131590927201:6.93639495226172E-6
-0.7994378007377235:4.089854386444664:5.4582148304801044E-5
-0.7774884304921482:4.2131900783857725:5.8261322511274505E-5
1.1902127072468929:0.9469379634003556:8.870310389015069E-7
1.2974419700812132:0.9721984335228415:-1.676104690483953E-6
1.4046712329155322:0.9896933653229848:1.3471176546235012E-6
1.0977549597842016:1.0272601917609923:8.29851694570194E-6
1.2049842226185223:1.0564034310446495:6.492824393073615E-7
1.312213485452842:1.077781132005964:-1.4135939925943085E-6
1.1125264751558317:1.1406084285664573:7.562973820245082E-6
1.2197557379901522:1.1658688986889434:4.1399861133429163E-7
1.1272979905274618:1.2539566653719223:6.8298954664093E-6
-0.52793820127938:4.041314105648367:6.631112255722064E-4
-0.5131807767690937:4.146869677822787:6.127589645806731E-4
-0.4984233522588073:4.252425249997207:5.898398810521665E-4
-0.4836659277485209:4.357980822171628:5.943539749866872E-4
-0.6111216110169695:4.098606096560836:1.4101637892950555E-4
-0.5963641865066832:4.204055351420482:1.0955919224602671E-4
-0.5816067619963968:4.309504606280129:1.0553518302557444E-4
-0.6943050207545588:4.155898087473304:-6.0600255424138447E-5
-0.6795475962442726:4.261241025018178:-7.31623677995631E-5
1.7349134240918267:0.9899399070817654:6.490161865327688E-7
1.7028628171415254:1.0842728594859756:3.917855259375769E-7
1.6708122101912237:1.1786058118901859:1.5991396091628962E-7
1.638761603240922:1.272938764294396:-4.659850853109301E-8
1.6248326936997297:0.998912089396637:-2.153485058890129E-7
1.5927820867494278:1.0887178603502816:-1.6309073163368792E-7
1.5607314797991254:1.1785236313039256:-8.547386180445835E-8
1.5147519633076314:0.9988299088103768:1.7351983474564473E-8
1.482701356357329:1.0841084983134555:3.790981925804063E-7
2.0566933667039553:0.9145618631569373:6.96852996011317E-6
2.056834364977069:0.9942900230857498:5.9242844018702686E-6
2.056975363250182:1.0740181830145619:4.9678923912594245E-6
2.057116361523296:1.153746342943374:4.099353928280638E-6
1.9494333858332455:0.9474678637475875:1.0074399415931838E-6
1.9495743841063595:1.0233060307018795:7.536905367431593E-7
1.9497153823794726:1.099144197656171:5.877946795251914E-7
1.842173404962536:0.9725938783891968:-1.0990646496002838E-6
1.8423144032356502:1.0445420523689686:-5.623179010574315E-7
2.9149335735573763:0.7494356847724368:0.020014848156741784
2.8286856210913367:0.7139088182975917:0.006334660739948446
2.7424376686252976:0.6783819518227464:-4.682398141758404E-5
2.6561897161592585:0.6428550853479014:8.703939926436921E-4
2.9171375438822533:0.6778035244479023:0.0178568803016076
2.8308895914162138:0.6395981733282567:0.0051485302409319976
2.7446416389501733:0.6013928222086112:-2.6111712431629977E-4
2.9193415142071304:0.6061713641233675:0.015560774915682005
2.833093561741091:0.5652875283589218:0.0038242622111241396
2.9215454845320075:0.5345392037988329:0.013126531998965
3.0299160913172427:0.6275775937772172:0.06273849232444102
2.9937925557221643:0.5965647971177559:0.03847359102031159
2.957669020127086:0.5655520004582943:0.021936270911819572
3.0671416120747597:0.5850517291848115:0.09093196908019424
3.0310180764796812:0.5503461018217621:0.05740071902043561
2.9948945408846024:0.5156404744587127:0.031597050156314394
3.104367132832276:0.5425258645924057:0.12951029858301602
3.068243597237198:0.5041274065257686:0.08671269976762819
3.141592653589793:0.5:0.17847348083290634
-0.28125840007477765:4.211107964317498:0.01082117203596919
-0.26040633347121195:4.296025799511722:0.011871827343996494
-0.2395542668676462:4.380943634705946:0.012559345915694766
-0.21870220026408047:4.465861469900171:0.01288372775106402
-0.34872757596602544:4.260065583602207:0.003602379205711547
-0.3278755093624598:4.347672588583656:0.003995038526441149
-0.30702344275889404:4.435279593565103:0.004024561110841723
-0.4161967518572731:4.309023202886918:1.934398520507124E-4
-0.3953446852537076:4.399319377655591:-7.189681451738547E-5
2.362278697039204:0.7876794224296279:5.2762824490423865E-5
2.360209067050826:0.8900449321208943:4.643844430920206E-5
2.358139437062447:0.992410441812161:5.073977478063962E-5
2.356069807074069:1.0947759515034277:6.566681590473656E-5
2.2604169202607873:0.8346872293599755:8.415932035861977E-6
2.2583472902724093:0.9346959090406199:4.3183452819075095E-6
2.256277660284031:1.0347045887212643:1.0846469180612402E-5
2.158555143482371:0.8769813762690786:-6.848832807574922E-6
2.156485513493994:0.974633225939101:-8.719626134262057E-6
2.6690044936624737:0.7337339787433048:6.919068813914347E-4
2.6818192711656885:0.824612872138708:7.501529112531389E-4
2.6946340486689038:0.9154917655341115:0.0010451320822288045
2.558219376452572:0.6913757553928087:2.0953777618675163E-4
2.571034153955788:0.7821317032793796:1.2714170617603667E-4
2.583848931459004:0.8728876511659504:2.81478777279283E-4
2.460249036745887:0.7396505344200508:-6.300594653100442E-5
2.4730638142491044:0.8302835367977892:-4.9310975300177236E-5
-0.08808582891583927:4.3116462892169025:0.08031696247264965
-0.058723885943897144:4.374431781378011:0.1049653891797732
-0.029361942971955008:4.437217273539119:0.1376499759842391
-1.2878340363417139E-14:4.500002765700228:0.1783707228860473
-0.131624619365253:4.363051349444659:0.049298182858902945
-0.10226267639331098:4.429488204933841:0.06376636119257648
-0.07290073342136888:4.495925060423022:0.08627069962359232
-0.17516340981466672:4.414456409672415:0.02682043795170773
-0.14580146684272477:4.484544628489671:0.03110836791193124
0.2187022002640322:4.465861469900186:1.002109488024678
0.1458014668426838:4.484544628489678:0.6561409313863548
0.0729007334213354:4.4959250604230245:0.3815613430068112
0.17323779160023733:4.4072600019969475:0.6295867432042332
0.10033705817888894:4.422291797258367:0.39696273227342527
0.02743632475754059:4.430020865863642:0.23572768960139664
0.12777338293644241:4.348658534093708:0.38598671720223937
0.05487264951509409:4.360038966027057:0.26670725197894624
0.08230897427264754:4.29005706619047:0.27130941001869596
0.29117449219664726:4.204746140099566:0.4511339629292726
0.3553383040472467:4.255824367456933:0.5256639053892523
0.41950211589784614:4.306902594814298:1.0739642923988337
0.4836659277484455:4.357980822171665:2.096035123958017
0.26701706155244226:4.291784583366439:0.5990829698673202
0.33118087340304175:4.345551980511029:1.0463559158115787
0.39534468525364125:4.399319377655617:1.9673993063054385
0.2428596309082372:4.378823026633312:0.7827414782324553
0.30702344275883686:4.4352795935651255:1.6027574276609924
0.4917346560696131:4.087884048141671:0.29506541132714753
0.5869859142104292:4.129652724889718:0.23192048979383134
0.6822371723512455:4.171421401637765:0.6383883336726819
0.7774884304920616:4.2131900783858125:1.5144689429636993
0.48904507996255725:4.177916306151669:0.3018334945031408
0.5842963381033736:4.219578665584944:0.9382745506714291
0.6795475962441896:4.261241025018218:2.044328372251884
0.48635550385550136:4.267948564161667:0.9021567320467638
0.5816067619963177:4.30950460628017:2.2381837659166566
0.7705188541643311:4.11375258664025:0.3786522435581879
0.7635492778366004:4.0143150948946875:-0.05138554955232651
0.75657970150887:3.914877603149125:0.22435556363215636
0.8793201017989132:4.16613159092724:1.5010379160294567
0.8723505254711827:4.069039670687405:0.36902144822240174
0.8653809491434521:3.9719477504475695:-0.05721611328965612
0.9811517731057645:4.123764246480121:1.3561286124966783
0.9741821967780342:4.029017897746014:0.2279123762880801
1.082983444412616:4.086088045044458:1.0797410323653647
1.0733178513823016:4.002784075163986:0.305039183498077
1.0636522583519872:3.919480105283514:-0.021157212515409866
1.053986665321673:3.8361761354030426:0.10115184432490405
1.1902127072469377:4.053062036599632:0.9327928224520571
1.180547114216623:3.973640835880332:0.2530562232012655
1.170881521186308:3.8942196351610314:0.02182507680427454
1.2974419700812583:4.027801566477149:0.7292448206341248
1.2877763770509434:3.9522631349190207:0.1444734709998292
1.4046712329155782:4.010306634677009:0.4690970269115679
1.4280271194315557:3.916778267455582:-0.013360053723285505
1.4513830059475328:3.823249900234156:-0.11333870499963188
1.4747388924635103:3.729721533012729:0.16916107308252878
1.5147519633076778:4.001170091189621:0.9670625572887036
1.5381078498236542:3.9121689054187603:0.28662729326330216
1.5614637363396306:3.8231677196478997:-0.011329541403592472
1.6248326936997755:4.001087910603365:0.9203045481193742
1.6481885802157517:3.9166139062830707:0.04189110070342475
1.734913424091872:4.01006009291824:0.3288229994035801
1.7881824988741242:3.923930934391418:-0.05246026862658544
1.841451573656376:3.8378017758645946:-0.06915098173903486
1.8947206484386283:3.7516726173377717:0.2787508600662318
1.8421734049625813:4.027406121610812:1.2041119418691937
1.8954424797448335:3.94516695605851:0.3739073222451754
1.9487115545270852:3.862927790506207:-0.09170474246112682
1.94943338583329:4.052532136252425:1.3233858980875937
2.0027024606155424:3.974182963674643:0.044259926869722854
2.056693366703999:4.085438136843077:0.6866448680587804
2.3196486712897513:3.893501520245065:0.206402526198967
2.3338586798729186:3.999774539353509:-0.04185773096049213
2.3480686884560855:4.106047558461952:0.31338579888949947
2.362278697039253:4.212320577570395:1.272133115748942
2.2319969030945:3.9574803924444026:-0.013356864861903224
2.2462069116776684:4.061396581542225:0.4570752217815946
2.2604169202608353:4.165312770640046:1.531011095434543
2.1443451348992495:4.02145926464374:0.14672391575803456
2.1585551434824177:4.123018623730942:1.3358483462044892
2.4537251346961257:4.1447504794111305:0.4007656087820217
2.5451715723529977:4.077180381251866:0.06260244482137854
2.63661801000987:4.009610283092602:0.25764362386701234
2.460249036745931:4.26034946557997:1.9250581457460245
2.5516954744028038:4.192902312929538:0.7378014749095978
2.6431419120596766:4.125455160279106:0.08374914707944768
2.5582193764526098:4.308624244607209:2.2309336879710413
2.6496658141094835:4.241300037465611:0.7277878532651078
2.65618971615929:4.357144914652114:2.1897597424239925
2.846202888851482:4.259760517924746:0.5630065970645077
2.871317087411657:4.328327277350219:0.7188753913063454
2.8964312859718317:4.396894036775692:0.8654539119529715
2.921545484532007:4.4654607962011665:1.0027421590043863
2.782865164620752:4.292221983500536:0.7467527774602212
2.8079793631809267:4.363467227570809:1.1880408157329263
2.8330935617411006:4.434712471641082:1.6200385804104198
2.7195274403900207:4.324683449076325:1.2890038259133827
2.7446416389501955:4.3986071777913995:2.0157111082169554
2.9459684013303575:4.416477839857892:0.7260535504658394
2.970391318128707:4.367494883514619:0.5229200393108715
2.9948142349270577:4.318511927171344:0.39334162553948265
2.994894540884602:4.4843595255412865:0.65198781268606
3.0193174576829525:4.431683738494424:0.4688722082524949
3.0437403744813025:4.379007951447562:0.35931170120250877
3.068243597237197:4.495872593474231:0.3771834826098145
3.0926665140355483:4.439503975723782:0.2876408822812313
3.141592653589793:4.5:0.1783291687756501
-3.048239376564227:0.6873520016372314:0.3014671733288171
-3.0949160150770094:0.7068437440874139:0.22318802148832126
-3.1415926535897927:0.7263354865375964:0.162731323906171
-3.09491601507701:0.6313985819082151:0.2562684432478948
-3.1415926535897927:0.6508903243583976:0.1731624152210033
-3.1415926535897927:0.5754451621791987:0.1784098008632485
-2.9751218802933854:0.9011323513632366:0.2122983275267357
-3.030612138058855:0.9390071233491684:0.16991349181511
-3.0861023958243243:0.9768818953351001:0.13569123966218302
-3.1415926535897936:1.0147566673210318:0.10963157106795474
-3.0306121380588547:0.8428667297546899:0.2187993323000652
-3.086102395824324:0.8807415017406216:0.1683530220416294
-3.141592653589793:0.9186162737265533:0.12606929534189223
-3.0861023958243234:0.7846011081461431:0.202276997759877
-3.1415926535897927:0.8224758801320748:0.14376921295463105
-2.9927491187987583:0.7456176232457781:0.326843338297489
-2.983935499546072:0.8233749873045073:0.2650865209971814
-3.0394257573115406:0.7651093656959607:0.2556489408995102
-2.9523525876022148:0.6895308658164325:0.46508520270506415
-2.925680169762411:0.6450905140203578:0.6279390599734348
-2.903142437152985:0.7112014724458161:0.5254874854789187
-2.894328817900299:0.7889588365045453:0.3821812772513771
-2.934725349096842:0.8450455939338909:0.260022177177215
-2.9435389683495283:0.7672882298751618:0.3580693780262087
-2.9275291154762426:1.1693407807545873:0.08506225369519023
-2.9988836281807596:1.2264662265211521:0.0787986172175218
-3.070238140885276:1.283591672287717:0.07251202327695502
-3.141592653589793:1.3407171180542816:0.06620247187348996
-2.9988836281807596:1.1178127429434022:0.10606631663576566
-3.0702381408852766:1.1749381887099668:0.09187562357181368
-3.141592653589793:1.2320636344765317:0.07766197304496338
-3.0702381408852766:1.0662847051322168:0.11425608909335382
-3.141592653589793:1.1234101508987817:0.09213833944311833
-3.0147478831198073:1.0284099331462853:0.13045154937934808
-2.9592576253543377:0.9905351611603533:0.15480959322404098
-2.94339337041529:1.0799379709574704:0.11239756861352582
-2.7892125253470637:0.8191834545709737:0.4030848838013976
-2.723298335165579:0.7891777899952004:0.3682815013808556
-2.7244927639903715:0.9054948300667478:0.2987048400499021
-2.838277077862055:1.1101625890238989:0.05934136162825012
-2.8541413328011025:1.020759779226782:0.10885010509066924
-2.87000558774015:0.931356969429665:0.1734355582452679
-2.7490250402478673:1.0509843972932102:0.11953244256143189
-2.7648892951869146:0.9615815874960933:0.19121461456793454
-2.8296090565436067:0.8752702120003194:0.2510425958114914
-2.917189674667204:1.4978357157257962:0.03213017962724102
-2.9919906676414003:1.555869134077779:0.03820520373048962
-3.0667916606155963:1.6139025524297614:0.04162017643349994
-3.1415926535897927:1.671935970781744:0.042375097736271995
-2.9919906676414008:1.4454628498352915:0.04720600759144408
-3.0667916606155967:1.5034962681872739:0.049236929657052814
-3.1415926535897927:1.5615296865392565:0.04860780032242327
-3.0667916606155967:1.3930899839447866:0.05856343834019373
-3.1415926535897927:1.451123402296769:0.0565502583681626
-2.99543714791108:1.3359645381782217:0.05893499461935603
-2.924082635206563:1.2788390924116568:0.059283593435619994
-2.9206361549368833:1.3883374040687264:0.0416395687463036
-2.436970035234581:1.058954273786493:0.07142936241114692
-2.5483715189341303:1.0253802396745075:0.0941752825381603
-2.4492067504026545:0.9573379786302025:-0.05213802949376721
-2.6993661372441164:1.3403593414926906:0.019337766326957096
-2.7719739830518124:1.3928514662370592:0.02099935770929872
-2.844581828859508:1.4453435909814276:0.02526349547606003
-2.775420463321492:1.2833531545799897:0.029249709026194073
-2.848028309129188:1.335845279324358:0.034143365694038995
-2.8514747893988672:1.2263469676672885:0.051157871482271786
-2.7622227517846794:1.1671687759365998:0.039168796445059474
-2.6729707141704915:1.1079905842059115:0.11309169440796904
-2.686168425707304:1.224174962849301:0.03099245101870955
-2.478197636618347:1.2676822761384963:0.015612400048353547
-2.538722758623458:1.175723585946505:0.013230125391641964
-2.599247880628569:1.0837648957545134:0.09657115754043596
-2.427321274923909:1.2092976200584906:0.009625202723421357
-2.4878463969290197:1.117338929866499:0.009038589228038033
-2.3764449132294705:1.1509129639784845:0.07022031474520198
-2.5519204701602707:1.2919079645898945:0.015002546677389853
-2.6256433037021933:1.3161336530412926:0.016244335436924367
-2.612445592165381:1.199949274397903:0.021185467139926646
-2.9000003925308775:1.8280014924147394:0.020337260292163425
-2.980531146217183:1.8863881890995158:0.02567708665557679
-3.0610618999034878:1.9447748857842921:0.029262863508709425
-3.141592653589793:2.0031615824690685:0.031094590851561337
-2.980531146217183:1.7759796518704078:0.028227674277986108
-3.0610618999034878:1.834366348555184:0.03195788068585042
-3.1415926535897927:1.8927530452399604:0.03393403758343399
-3.0610618999034878:1.7239578113260758:0.03557362009268897
-3.1415926535897927:1.7823445080108522:0.037694206545004216
-2.9862609069292914:1.6659243929740932:0.03234998808598351
-2.911459913955095:1.6078909746221106:0.026466304679039775
-2.905730153242986:1.717946233518425:0.022535331567347244
-2.6829969252357184:1.6656568238658362:0.008219651388888485
-2.755331414334105:1.7197717133821375:0.011579891437810068
-2.827665903432491:1.7738866028984384:0.015619094405568381
-2.7610611750462137:1.6097164544858231:0.0127134078058153
-2.8333956641446:1.663831344002124:0.017284888227162908
-2.8391254248567086:1.5537760851058096:0.020683583885266144
-2.766517579049013:1.5012839603614412:0.015447001755735199
-2.693909733241317:1.4487918356170726:0.01281296601062393
-2.6884533292385178:1.5572243297414543:0.009106927697934395
-2.2613110964809184:1.1392485738297318:0.06788778379816732
-2.171686034870576:1.079926425582546:-0.05138850603266267
-2.0820609732602335:1.02060427733536:0.21609875674903872
-2.1970536414268045:1.185968839760985:0.015726546725541735
-2.107428579816462:1.1266466915137991:-0.02041974368565854
-2.132796186372691:1.2326891056922382:0.0409140248958187
-2.1826451208806246:1.280035176209926:0.014653034250695678
-2.232494055388558:1.3273812467276136:0.003429281455505642
-2.2823429898964918:1.3747273172453012:0.007242766510248585
-2.246902575934738:1.2333149102786727:0.0016109527017920608
-2.2967515104426717:1.2806609807963603:0.0025325965279753538
-2.3111600309888516:1.1865946443474193:0.06591758639579096
-2.4129127543777287:1.3033639565074313:0.011343545078319396
-2.36203639268329:1.2449793004274254:0.005339411063698773
-2.34762787213711:1.3390456368763661:0.008553667232284408