% Model:              oval_geometry.mph
% Version:            COMSOL 6.2.0.339
% Date:               Mar 4 2025, 10:51
% Dimension:          2
% Nodes:              18814
% Expressions:        1
% Description:        Surface
% X:Y:Dependent variable u
-3.059293230053126:0.5908718148386854:0.34726052343124814
-3.086726371232015:0.560581209892457:0.29621999054667597
-3.114159512410904:0.5302906049462284:0.24255033654372427
-3.141592653589793:0.5:0.18625156142239319
-3.045077986825939:0.5644196658766725:0.4067980274647983
-3.0725111280048276:0.532865922792936:0.345541340903092
-3.0999442691837165:0.5013121797091993:0.2816555332230061
-3.030862743598752:0.5379675169146594:0.4800210913940957
-3.058295884777641:0.5051506356934148:0.4085482511552553
-3.0166475003715645:0.5115153679526464:0.5669297152191404
-2.9750444835698397:0.6102697462161255:0.5693934961633413
-2.988912155837081:0.5773516201282991:0.583204287924408
-3.0027798281043228:0.5444334940404727:0.5823830276096743
-2.948386003680413:0.5877898701076122:0.7165608799112279
-2.9622536759476548:0.5538855248045883:0.7470126621337404
-2.976121348214896:0.5199811795015645:0.7628323922804525
-2.9217275237909863:0.5653099939990986:0.9267053146208456
-2.9355951960582285:0.5304194294808777:0.9737980873048041
-2.8950690439015596:0.5428301178905853:1.1998268002921946
-2.868731419253617:0.6600061583184293:0.7772763404877528
-2.8775106274695976:0.6209474781758147:0.91034856357744
-2.886289835685578:0.5818887980332:1.0511987168455872
-2.838366329932889:0.6358040242952251:0.9989042228113304
-2.84714553814887:0.5961076322371088:1.2183463827300265
-2.8559247463648516:0.5564112401789924:1.4455664728271824
-2.8080012406121604:0.6116018902720206:1.3502346697411975
-2.8167804488281427:0.5712677862984028:1.6560467664889025
-2.777636151291432:0.5873997562488161:1.8312676812773543
-2.757300880295718:0.70454318015967:0.885515147309552
-2.764079303960956:0.6654953721893854:1.1323261094205315
-2.770857727626194:0.6264475642191006:1.4475769540764656
-2.7259636538907763:0.6828436200917608:1.1437906155147897
-2.732742077556014:0.6434499898129704:1.5425525828099498
-2.739520501221252:0.6040563595341799:2.0097544326500647
-2.6946264274858347:0.6611440600238516:1.5682155578042372
-2.701404851151073:0.6214046074365556:2.1189285302835783
-2.6632892010808935:0.6394444999559423:2.1587899741778944
-2.6504326210534765:0.7552974536455824:0.8085147788434658
-2.654718147729282:0.7166798024157024:1.1111664550557145
-2.659003674405088:0.6780621511858222:1.5612581868338573
-2.617136684327268:0.7351638128011664:1.06269117276701
-2.6214222110030736:0.6964205936570806:1.5641737704602816
-2.625707737678879:0.6576773745129947:2.213096423719447
-2.5838407476010588:0.7150301719567502:1.497698254212425
-2.588126274276865:0.6761613848984588:2.1980117733867193
-2.5505448108748507:0.6948965311123343:2.1135360231797105
-2.538170979287898:0.8121191627461645:0.6281228394911187
-2.5422955898168818:0.7730449522015544:0.9209025138183643
-2.5464202003458656:0.7339707416569443:1.4160402417145614
-2.504805992342163:0.7917155047603195:0.8529700958097843
-2.5089306028711467:0.752683212009782:1.36571691225462
-2.513055213400131:0.7136509192592445:2.080821782268407
-2.471441005396427:0.7713118467744744:1.2596878105426077
-2.4755656159254116:0.7323214718180098:1.9924017691050335
-2.4380760184506913:0.7509081887886294:1.8482759836895888
-2.42368871717488:0.8660731339132034:0.4676206753804974
-2.428484484266818:0.8276848188716788:0.7140550235159389
-2.4332802513587546:0.789296503830154:1.1742734596189695
-2.390732430917281:0.8458168373662048:0.6573306156595871
-2.395528198009218:0.8076055350507332:1.1171483525970127
-2.400323965101155:0.7693942327352612:1.7907501775020274
-2.357776144659681:0.8255605408192062:1.0138807719810021
-2.362571911751619:0.7875262512297876:1.6870818977204125
-2.3248198584020816:0.8053042442722076:1.537271144344743
-2.304410076494574:0.9193787490776562:0.3434199110000316
-2.3112133371304098:0.8813539141425066:0.5383474472429832
-2.3180165977662455:0.8433290792073571:0.9362978583578869
-2.272927935205673:0.8983269090118939:0.5002804392709468
-2.279731195841509:0.8605912445295582:0.8965548158185146
-2.2865344564773444:0.8228555800472224:1.4958520672380344
-2.2414457939167725:0.8772750689461317:0.8110960787148945
-2.2482490545526086:0.83982857491661:1.4087172955670788
-2.209963652627872:0.8562232288803695:1.2758668293318751
-2.1857008472628072:0.9731887259188331:0.24371615284144352
-2.193788449051162:0.934200226906012:0.3878151217047104
-2.201876050839517:0.8952117278931908:0.7318653472015209
-2.15477885202573:0.9494290449387097:0.3685698466431587
-2.162866453814085:0.9108321917433078:0.7157979600559912
-2.17095405560244:0.8722353385479058:1.2629773301023675
-2.123856856788652:0.925669363958586:0.6464092270685431
-2.131944458577008:0.8874641565806036:1.1967664850309414
-2.0929348615515746:0.9019096829784625:1.077234294117597
-2.061753130483052:1.0230107183797792:0.18012101036735997
-2.072147040839226:0.9826437065793403:0.28439621598512743
-2.0825409511954:0.9422766947789013:0.5834339772352064
-2.032315129199154:0.995561329784962:0.2774404178508577
-2.0427090395553282:0.9556714609441727:0.5913296723820348
-2.053102949911502:0.9157815921033831:1.0999814825455232
-2.002877127915257:0.9681119411901448:0.5296828506157851
-2.013271038271431:0.9286992153090049:1.0531861540603717
-1.9734391266313593:0.9406625525953277:0.936848308662142
-1.8514928028261424:0.9707929955961422:0.8463995742622608
-1.879142157463088:1.0016486411703416:0.45520377180068977
-1.9067915121000338:1.0325042867445404:0.22140441413824352
-1.9344408667369795:1.0633599323187397:0.14500150127492228
-1.892141577427881:0.961858897525481:0.9580257548125547
-1.9197909320648272:0.9921598516348752:0.5117549141245215
-1.9474402867017726:1.022460805744269:0.22288051823561278
-1.93279035202962:0.9518154165252095:0.9881753329458483
-1.9604397066665666:0.9815616791697986:0.4868294540313528
-1.7274953305080025:0.9908250726755614:0.7828062280692619
-1.7525863475265449:1.0237143530056283:0.416560417627894
-1.777677364545087:1.056603633335695:0.20061568174469907
-1.8027683815636295:1.089492913665762:0.13497202041967704
-1.7688278212807163:0.9853762127901964:0.8999723721276829
-1.7939188382992586:1.0176512435497094:0.47583529590132817
-1.8190098553178005:1.0499262743092221:0.20199929423314597
-1.8101603120534295:0.9786988537637233:0.9211701541920158
-1.8352513290719719:1.0103596349526824:0.43914181218067394
-1.6022045766063144:0.9996317348184084:0.7434493198539474
-1.6239290121429288:1.0406495889222718:0.3523930372966737
-1.6456534476795426:1.0816674430261353:0.14175990008176653
-1.6673778832161568:1.122685297129999:0.11154990820922585
-1.6439681612402102:0.9979904884946043:0.8906070289643695
-1.6656925967768246:1.038361188736562:0.4255895587441914
-1.6874170323134385:1.0787318889785196:0.14099523386637985
-1.6857317458741061:0.9950549344469886:0.9037259983694743
-1.707456181410721:1.0347784808270406:0.3647473404863919
-1.4766409975360741:0.9966773393168761:0.7822040063849673
-1.4907715916810207:1.038934423177364:0.3612867813060805
-1.5049021858259672:1.081191507037852:0.13659954847521244
-1.519032779970914:1.12344859089834:0.10814230789236345
-1.5184955238928208:0.9989759313894637:0.8868637038746033
-1.5326261180377676:1.0405761184639135:0.41918253196693106
-1.546756712182714:1.0821763055383629:0.14773135230727769
-1.5603500502495673:0.9999607298899744:0.8739454750309298
-1.5744806443945145:1.040904020178386:0.3595003562944724
-3.0590690520130273:4.40935996460072:0.0823750756316753
-3.0449285347992077:4.435734853749597:0.06894755573196415
-3.030788017585387:4.462109742898476:0.05647584834294985
-3.0166475003715676:4.488484632047355:0.04495995346463242
-3.086576919205283:4.439573309733815:0.10829247744259377
-3.0724364019914625:4.4672113370202:0.09077208213606187
-3.0582958847776416:4.494849364306585:0.07420749934022683
-3.114084786397538:4.469786654866907:0.1429324216711434
-3.0999442691837173:4.498687820290801:0.12131915095779076
-3.141592653589793:4.5:0.18629490831732418
-1.3518812782376513:0.9821559220558516:0.824715107529444
-1.3620776582020566:1.0203965712297132:0.4178473503437224
-1.3722740381664615:1.0586372204035746:0.18442069286804924
-1.382470418130867:1.0968778695774362:0.12443513510242434
-1.393467851337126:0.9882653139030643:0.8899835197665189
-1.4036642313015313:1.0258715033634902:0.4553407835476555
-1.4138606112659362:1.063477692823916:0.19413914703884036
-1.4350544244366001:0.9931057863234056:0.8758131527183599
-1.4452508044010055:1.0300775160703963:0.41339543746635476
-2.9761331300196314:4.389379131495524:0.033037189584218134
-2.949111767980275:4.411976048366821:0.022018591792738414
-2.922090405940918:4.434572965238117:0.013842353118854553
-2.895069043901561:4.457169882109414:0.008508473562566548
-2.9896379201369436:4.422414298346133:0.036760449788096866
-2.9626165580975865:4.445997434432629:0.02437812296408659
-2.935595196058228:4.469580570519122:0.014838155257672172
-3.003142710254255:4.455449465196744:0.04073470441490163
-2.9761213482148974:4.480018820498437:0.026988648558360803
-1.2288363531490123:0.9569039934070024:0.8890380668728687
-1.2386811453489157:0.9975968071876523:0.4470183528419428
-1.2485259375488194:1.038289620968302:0.19384526234220328
-1.258370729748723:1.078982434748952:0.12951879537365016
-1.2698513281785586:0.966491321481916:0.9470245759717981
-1.2796961203784623:1.0065991259999174:0.4785623144592828
-1.289540912578366:1.0467069305179186:0.1989466764779535
-1.3108663032081047:0.9749086310315321:0.9255835895239899
-1.3207110954080088:1.0144314262868854:0.43067878052988484
-2.8700169613396187:4.339408597730062:0.008882344910108505
-2.8392233579902237:4.363805813070437:0.0050960956791593825
-2.808429754640829:4.3882030284108104:0.00258829579389441
-2.777636151291434:4.412600243751186:0.0013589452543135872
-2.878367655526933:4.378662359189845:0.008852941776991974
-2.8475740521775386:4.403697286445722:0.0049905162485196376
-2.816780448828143:4.428732213701598:0.002406540065731449
-2.886718349714247:4.41791612064963:0.00872831799447799
-2.8559247463648534:4.443588759821008:0.0047897161684824375
-1.1080909690018792:0.9222574718405356:1.0072786973948396
-1.1155759691732516:0.9634923272017121:0.516148659687035
-1.1230609693446238:1.004727182562888:0.2302895780742217
-1.130545969515996:1.0459620379240644:0.14970145255639974
-1.1483394303842567:0.9348471627589219:1.0365487624559557
-1.1558244305556293:0.975561592921983:0.5317083254024955
-1.1633094307270018:1.0162760230850436:0.23213884444402622
-1.1885878917666342:0.9463960032810774:0.9971352189486321
-1.1960728919380073:0.9865900082460232:0.47858438254951596
-2.759210500589196:4.291081715703804:0.0017807409630594235
-2.7272367340864294:4.314239643817222:9.037844996847711E-4
-2.6952629675836626:4.337397571930641:3.7339401409718884E-4
-2.663289201080896:4.360555500044059:1.89569506296677E-4
-2.765352384156609:4.3315878917195985:0.00165580051660489
-2.733378617653842:4.355091642141522:8.136305504953842E-4
-2.7014048511510746:4.3785953925634455:3.1802656217294807E-4
-2.7714942677240213:4.372094067735391:0.0015152019470229447
-2.739520501221255:4.395943640465822:7.078184781785851E-4
-1.0099885488251745:0.9976883095931229:0.20613411964682515
-1.0426893555507428:0.9725446970089272:0.3157056537247924
-1.0753901622763111:0.9474010844247313:0.5827538463074639
-1.0032740884852411:0.9584025638780662:0.3268812574991936
-1.0359748952108092:0.9336931274194178:0.6437325779927683
-1.0686757019363773:0.9089836909607691:1.1180605569910471
-0.996559628145308:0.9191168181630094:0.6484100510396739
-1.029260434870876:0.8948415578299083:1.1725411579488563
-0.9898451678053748:0.8798310724479526:1.1707205002682661
-2.6498991078860663:4.238967016415014:2.933421506523092E-4
-2.616781008882329:4.261012500572566:1.3254815211496084E-4
-2.583662909878591:4.283057984730116:4.2540806308633165E-5
-2.5505448108748534:4.305103468887667:2.3320113233326212E-5
-2.654362472284343:4.279496510958029:2.5747955678559063E-4
-2.6212443732806054:4.3016675630297865:1.0992309299164757E-4
-2.588126274276868:4.323838615101543:3.315328192872517E-5
-2.6588258366826194:4.3200260055010435:2.2288867533371324E-4
-2.625707737678882:4.342322625487008:8.856974628317547E-5
-0.8903816536948069:0.9488682664485107:0.2750029973291958
-0.9235361583983296:0.9258558684483247:0.40972146213308824
-0.9566906631018521:0.9028434704481385:0.7082939631127783
-0.8849077966648955:0.9096813252888926:0.43623519857949067
-0.9180623013684182:0.8870105806002594:0.7830854129164886
-0.9512168060719408:0.8643398359116262:1.293789663429284
-0.8794339396349842:0.8704943841292742:0.810873915040572
-0.912588444338507:0.8481652927521942:1.3698558789106754
-0.8739600826050729:0.8313074429696559:1.3989191467124398
-0.30571461281243956:0.5638609697351618:1.5384897203832368
-0.2658990236018656:0.549320077478739:1.321210990794723
-0.22608343439129172:0.5363972014726105:1.0957950809850945
-0.18626784518071793:0.5250923417167764:0.8622419909543518
-0.27783364170034575:0.5911173462075776:1.1432596585509183
-0.2380180524897718:0.5773854620763021:0.9794185136702773
-0.19820246327919794:0.5652715941953208:0.8074401885685215
-0.24995267058825182:0.6183737226799935:0.8521343712294831
-0.210137081377678:0.6054508466738652:0.7417308110567148
-0.22207169947615796:0.6456300991524094:0.6651138584189314
-0.7747043957313375:0.8970386165469004:0.37856000833805087
-0.8077896246892493:0.8751282253544855:0.544900368664639
-0.8408748536471611:0.8532178341620705:0.8850200814561019
-0.769799418815251:0.8575023439853589:0.591014239692444
-0.802884647773163:0.8358272775943081:0.979119570146343
-0.8359698767310747:0.8141522112032569:1.5410042530651162
-0.7648944418991646:0.8179660714238173:1.0286034899605674
-0.7979796708570766:0.7965263298341303:1.6384737905417768
-0.7599894649830781:0.7784297988622757:1.6913277591424205
-0.33008093573434905:0.6865222073832498:0.8321733696284551
-0.3605281936777387:0.6619407482418121:1.0772892514421608
-0.39097545162112823:0.6373592891003744:1.4810292635504914
-0.4214227095645178:0.6127778299589368:2.043393405953447
-0.32195882809371257:0.6456351281672205:1.0305714532267496
-0.3524060860371022:0.6205717313637875:1.4022052718019768
-0.38285334398049176:0.5955083345603546:1.9324632206718286
-0.313836720453076:0.604748048951191:1.266010236811677
-0.34428397839646574:0.579202714485763:1.7641619921484255
-0.6616228305007635:0.8425434564814963:0.5270124906846152
-0.6944117086615351:0.8211722372750896:0.7314231527500945
-0.7272005868223066:0.7998010180686825:1.1195282422360298
-0.6568301086463332:0.8026882830700666:0.7960916247060391
-0.6896189868071048:0.7814298583896876:1.2277099529686568
-0.7224078649678761:0.7601714337093085:1.8430227086517301
-0.6520373867919026:0.7628331096586366:1.285322658741209
-0.6848262649526743:0.7416874795042857:1.9441486532009649
-0.6472446649374722:0.7229779362472069:1.9947055927901252
-0.43788654225767343:0.7333052998233275:0.8382353110123656
-0.4701868295859427:0.7111845518115822:1.098875669638779
-0.502487116914212:0.6890638037998369:1.5439429364409187
-0.5347874042424813:0.6669430557880918:2.173437111418785
-0.4323985980266216:0.6931294765351973:1.1239293320556154
-0.4646988853548908:0.6707815940005137:1.5723896905854957
-0.49699917268315996:0.6484337114658301:2.205276957291102
-0.4269106537955697:0.652953653247067:1.525648697035976
-0.45921094112383887:0.6303786361894452:2.1619290554693227
-0.5490141926925332:0.7871227374298169:0.7017078323504276
-0.5817576834408463:0.7657411370356136:0.942714765423682
-0.6145011741891593:0.7443595366414101:1.373714018903581
-0.5442719298758493:0.7470628435492419:1.0071376960178577
-0.5770154206241622:0.7256457656775313:1.4681803207730673
-0.6097589113724753:0.7042286878058204:2.1192152659349217
-0.5395296670591653:0.7070029496686667:1.497714122373977
-0.5722731578074784:0.685550394319449:2.1787924388111417
-0.14508878976233502:0.5154128618812979:0.6590764518614087
-0.10390973434395206:0.5080289868144174:0.48515370242874273
-0.06273067892556912:0.5029407165161354:0.3404737426563537
-0.16145940768544165:0.5566023670014062:0.659151412573848
-0.12028035226705874:0.5480706895502268:0.5009926423459498
-0.07910129684867576:0.5418346168676456:0.37207666177832827
-0.13665097019016537:0.5881123922860358:0.504558972216869
-0.09547191477178243:0.5807285172191556:0.3914069708540153
-0.11184253269488906:0.6196224175706656:0.3984646698834147
-2.538779607036117:4.183762103723792:3.868712799678776E-5
-2.5052117441743103:4.20553867288632:1.5749895246611213E-5
-2.4716438813125032:4.227315242048847:3.7008248691543647E-6
-2.4380760184506958:4.249091811211374:2.539916864417224E-6
-2.542701341649029:4.224209225445084:3.272559129229399E-5
-2.5091334787872226:4.24594387681354:1.2236515031459127E-5
-2.4755656159254156:4.267678528181994:2.635601143343953E-6
-2.546623076261941:4.264656347166375:2.7603253037806813E-5
-2.5130552134001354:4.286349080740759:9.562333266313622E-6
0.06273067892557097:0.5029407165161355:0.09486607663007635
0.04192363055320294:0.5392079568060514:0.12317933299112281
0.0211165821808349:0.5754751970959672:0.15120416588769
3.0953380846686823E-4:0.6117424373858832:0.17894057531977792
0.02091022630852433:0.5003242878793683:0.14995608068047803
1.0317793615627346E-4:0.5378997424876679:0.1848230931568376
-0.020703870436211795:0.5754751970959673:0.21940168216871786
-0.02091022630852236:0.5003242878793683:0.2318253026892371
-0.041717274680890454:0.5392079568060515:0.2732460712809098
-2.42598062082353:4.128939387294445:4.133687686275643E-6
-2.3922603666830495:4.150858176772229:1.5287072030574026E-6
-2.358540112542568:4.172776966250011:2.3323373128867877E-7
-2.324819858402087:4.194695755727795:2.4726727096947104E-7
-2.4300124200325857:4.168990195266756:3.445104126664827E-6
-2.3962921658921053:4.190731972018486:1.1373559937781224E-6
-2.3625719117516235:4.212473748770215:1.39114872340933E-7
-2.4340442192416405:4.209041003239064:2.913847186045354E-6
-2.40032396510116:4.230605767264741:9.033314034901846E-7
0.18626784518071884:0.5250923417167768:0.020033094191757965
0.1610088898909817:0.5577107282286895:0.031044606655213917
0.13574993460124457:0.590329114740602:0.04549471793086414
0.11049097931150746:0.6229475012525147:0.06338342801870862
0.14508878976233616:0.5154128618812982:0.034075961280968785
0.11982983447259908:0.5491790507775098:0.051520239951694094
0.09457087918286196:0.5829452396737216:0.07240311743461368
0.10390973434395354:0.5080289868144178:0.05902028876040824
0.07865077905421647:0.5429429780949286:0.0828973336384029
-2.3117552138821047:4.075649783232373:3.7713132139986643E-7
-2.2778246934640296:4.098358779194793:1.2659401338002252E-7
-2.2438941730459536:4.121067775157212:8.259726282982883E-9
-2.209963652627878:4.143776771119633:2.212846010874749E-8
-2.3161100953887654:4.115331774064181:3.1356202591211716E-7
-2.28217957497069:4.137751599573788:9.12383319043765E-8
-2.2482490545526135:4.160171425083394:1.1176588194400198E-9
-2.320464976895426:4.155013764895988:2.7027400910198534E-7
-2.2865344564773507:4.177144419952782:7.616392910634792E-8
0.30571461281244106:0.5638609697351622:0.0034685328097841307
0.27689175195515675:0.5918981088877564:0.00624430058975967
0.24806889109787245:0.6199352480403505:0.011074280334965915
0.21924603024058817:0.6479723871929447:0.017958472045402865
0.26589902360186696:0.5493200774787393:0.006132562171007569
0.23707616274458276:0.5781662247564807:0.011419595264335421
0.2082533018872984:0.607012372034222:0.018760840322893976
0.2260834343912929:0.5363972014726108:0.011654082631665511
0.19726057353400867:0.5660523568754996:0.01945238103834567
-2.205224570066677:4.104242994633578:2.2921651656389372E-8
-2.2004854875054756:4.0647092181475255:2.578579271049823E-8
-2.195746404944274:4.025175441661472:3.072088327107408E-8
-2.170954055602447:4.1277646614520975:5.9654695044677265E-9
-2.1662149730412454:4.088622530783463:6.655475950233108E-9
-2.1614758904800433:4.049480400114828:9.416431902465468E-9
-2.131944458577014:4.1125358434193995:-7.782976161336657E-10
-2.1272053760158123:4.073785358568184:-1.9147627224478473E-10
-2.092934861551581:4.098090317021539:1.8971587469433167E-9
0.3280721543575722:0.6858595346940415:0.004048050443828186
0.32061964050919517:0.6451933463744152:0.0039029717373118373
0.3131671266608181:0.6045271580547886:0.003709799192630485
0.35918900609322146:0.6614989664490071:0.0021890411173099804
0.3517364922448445:0.6203508404673853:0.0020607927310230686
0.34428397839646746:0.5792027144857637:0.001884450506571153
0.3903058578288707:0.6371383982039724:0.0010112884009243312
0.3828533439804938:0.5955083345603557:8.998703348668556E-4
0.42142270956451994:0.6127778299589379:5.147922946712375E-4
-2.087823804007478:4.058377922463244:1.8548428764963229E-9
-2.0827127464633755:4.018665527904947:1.9831780623149003E-9
-2.077601688919273:3.978953133346652:2.28216430439905E-9
-2.053102949911509:4.0842184078966195:4.564187989088016E-10
-2.0479918923674068:4.044983156297973:4.677992593151394E-10
-2.042880834823304:4.0057479046993265:6.498307759870485E-10
-2.0132710382714367:4.071300784690997:-1.281263249457208E-10
-2.0081599807273354:4.0325426760520005:-6.304953368605131E-11
-1.9734391266313653:4.059337447404674:1.4352337537974986E-10
0.4381881795975711:0.7342515607902218:7.22994191394077E-4
0.4325996895865541:0.6937603171797938:6.572989703441314E-4
0.42701119957553696:0.6532690735693658:5.878983381031847E-4
0.4703879211458746:0.7118153924561785:3.4884467210921275E-4
0.46479943113485755:0.6710970143228121:3.042659821666379E-4
0.4592109411238404:0.6303786361894457:2.5598188103306206E-4
0.5025876626941781:0.689379224122135:1.2992265240478274E-4
0.4969991726831611:0.6484337114658303:1.0646049356957861E-4
0.5347874042424816:0.6669430557880918:6.622813228078689E-5
-1.965845829849999:4.019392853099083:1.3682447056607051E-10
-1.9582525330686325:3.9794482587934894:1.3914137165232662E-10
-1.9506592362872661:3.939503664487897:1.5047407863851836E-10
-1.9327903520296257:4.048184583474793:3.217675527539524E-11
-1.9251970552482596:4.008794680634006:3.1396420584278054E-11
-1.917603758466893:3.9694047777932173:3.963189179309636E-11
-1.892141577427886:4.03814110247452:-1.1789651213887239E-11
-1.88454828064652:3.999305891098539:-6.651415782442256E-12
-1.8514928028261464:4.029207004403859:1.1624155911902456E-11
0.5503264017005268:0.7879359308983315:1.0117300625409575E-4
0.5451467358811786:0.7476049725282516:8.896423305442081E-5
0.53996707006183:0.7072740141581717:7.731594172998451E-5
0.5826324894461761:0.7662832660146235:4.425200203927487E-5
0.5774528236268277:0.7259168301670367:3.6634200226612703E-5
0.5722731578074793:0.6855503943194496:2.9576880289189178E-5
0.6149385771918252:0.7446306011309154:1.2983361258668272E-5
0.6097589113724771:0.7042286878058217:9.95653083301888E-6
0.6472446649374743:0.7229779362472074:7.367083912275962E-6
-1.8431578798564492:3.989993286593661:1.0616395038194373E-11
-1.834822956886752:3.9507795687834624:1.016793169579037E-11
-1.8264880339170548:3.9115658509732647:1.0278765884690447E-11
-1.810160312053434:4.021301146236278:2.419056777905495E-12
-1.8018253890837372:3.9827016779966344:2.1929792304570294E-12
-1.7934904661140396:3.9441022097569896:2.5261992143126417E-12
-1.7688278212807216:4.014623787209805:-1.1643381409152052E-12
-1.7604928983110248:3.9766385685407157:-6.087323621040541E-13
-1.7274953305080092:4.00917492732444:8.739711554403567E-13
0.6637362166203727:0.842841140309598:1.131159149484935E-5
0.6582390327260732:0.8028867389554678:9.81283667166654E-6
0.6527418488317738:0.7629323376013375:8.498000810808742E-6
0.6958206327412747:0.8213706931604907:4.538057432493865E-6
0.6903234488469753:0.7815290863323882:3.640867286569427E-6
0.6848262649526755:0.7416874795042853:2.927596102970002E-6
0.7279050488621767:0.7999002460113833:1.0032087047941031E-6
0.7224078649678772:0.7601714337093084:7.075832361280369E-7
0.7599894649830786:0.7784297988622763:7.070453117500654E-7
-1.7155623068534813:3.9650733246863514:7.967964218155809E-13
-1.703629283198953:3.9209717220482623:8.230214187792E-13
-1.691696259544425:3.8768701194101736:9.526461463312147E-13
-1.685731745874113:4.004945065553013:1.8225628402383512E-13
-1.673798722219585:3.961490616776831:1.544626923249498E-13
-1.6618656985650568:3.918036168000646:2.300688312144595E-13
-1.6439681612402168:4.002009511505396:-8.3317956193462E-14
-1.6320351375856892:3.9592022165911205:-6.173040596645682E-14
-1.6022045766063209:4.000368265181592:7.724843478846556E-14
0.7792576199133142:0.8974353086287062:1.0248090320743177E-6
0.7728349016032358:0.8577668053732296:8.939358540447112E-7
0.7664121832931572:0.8180983021177528:7.880146139366271E-7
0.8108251074772339:0.875392686742356:3.812485154273856E-7
0.8044023891671557:0.8359595082882437:3.0345892660766134E-7
0.797979670857077:0.796526329834131:2.5062127570945936E-7
0.8423925950411535:0.8533500648560058:5.971012561517303E-8
0.8359698767310753:0.8141522112032576:3.5004126005330995E-8
0.8739600826050732:0.8313074429696558:6.019386263768016E-8
-1.5863962610268572:3.9562917670077606:6.749801052158626E-14
-1.5705879454473934:3.912215268833929:1.1566285763451487E-13
-1.5547796298679297:3.868138770660098:2.217429761272514E-13
-1.560350050249574:4.000039270110026:1.0158476516467355E-14
-1.5445417346701105:3.956619668722233:2.870333665128647E-14
-1.5287334190906465:3.91320006733444:1.0516346816591336E-13
-1.5184955238928273:4.001024068610535:2.438368830007614E-14
-1.502687208313364:3.958261364008782:7.122383283659354E-14
-1.4766409975360806:4.003322660683122:1.1992407013929193E-13
0.8969738724379136:0.9512895571508774:8.181695561358866E-8
0.8893026091603002:0.9112955190904702:7.169564731175725E-8
0.8816313458826865:0.8713014810300629:6.44879496531211E-8
0.9279309708937346:0.9274700622499028:2.8236023126245532E-8
0.9202597076161211:0.8878176775010485:2.2273193867838997E-8
0.9125884443385076:0.848165292752194:1.922397525262768E-8
0.9588880693495554:0.9036505673489279:2.5076399448342044E-9
0.9512168060719421:0.8643398359116267:7.032897298525236E-10
0.9898451678053765:0.8798310724479531:4.631806069354678E-9
-1.4535507984999598:3.9625907565655107:1.384848663524745E-16
-1.430460599463839:3.9218588524478992:7.020397706447292E-13
-1.4073704004277185:3.881126948330288:2.225627927474422E-12
-1.4350544244366061:4.006894213676595:-8.451124018813839E-14
-1.4119642254004854:3.9667967692724186:4.182194388614768E-13
-1.3888740263643646:3.926699324868241:1.742636988962407E-12
-1.3934678513371315:4.011734686096936:4.916358798051619E-13
-1.370377652301011:3.9722717014061955:1.6168828231773308E-12
-1.3518812782376568:4.017844077944148:1.8483654301191933E-12
1.1080909690018808:0.9222574718405359:3.3120283788237693E-10
1.0781823280150724:0.9489073968936974:6.077268595408788E-11
1.048273687028264:0.975557321946859:1.9259872405779792E-9
1.0183650460414555:1.0022072470000205:5.926846501754052E-9
1.0686757019363788:0.9089836909607698:-6.420790753448342E-11
1.0387670609495707:0.935199439888384:1.4988569729186095E-9
1.0088584199627624:0.9614151888159981:5.197566559923883E-9
1.0292604348708776:0.8948415578299088:1.3693265029562833E-9
0.9993517938840697:0.9206231306319758:4.7658864157907584E-9
-1.3258227624741905:3.984897827791528:-1.4100246166385256E-13
-1.2997642467107244:3.951951577638908:7.503965105218252E-12
-1.2737057309472586:3.9190053274862886:2.478326813076551E-11
-1.3108663032081103:4.025091368968467:-1.15621082224359E-12
-1.2848077874446446:3.9927301280784966:6.1422662763492064E-12
-1.2587492716811781:3.9603688871885248:2.3075078833607155E-11
-1.2698513281785637:4.033508678518084:6.659294699088979E-12
-1.243792812415098:4.001732446890761:2.324561678805762E-11
-1.2288363531490172:4.043096006592997:2.5294881994116905E-11
1.2288363531490143:0.9569039934070027:2.521165654989457E-11
1.2007890527795164:0.9875996808805273:1.9818874538775423E-12
1.172741752410018:1.0182953683540517:1.143917479625513E-10
1.1446944520405198:1.048991055827576:3.624412380759159E-10
1.1885878917666366:0.946396003281078:-1.1592902965738175E-11
1.1605405913971385:0.9765712655564872:9.269628146613753E-11
1.13249329102764:1.006746527831896:3.3262509550270406E-10
1.1483394303842585:0.9348471627589222:9.040415747842257E-11
1.1202921300147606:0.9645019998362161:3.222122954381911E-10
-1.20096080457414:4.0120793213016634:2.0549624913273673E-12
-1.1730852559992624:3.9810626360103285:1.1299240496312306E-10
-1.1452097074243852:3.950045950718994:3.5810720940950404E-10
-1.1885878917666393:4.0536039967189215:-1.1931830540327767E-11
-1.1607123431917619:4.023107736625703:9.205567617390134E-11
-1.1328367946168845:3.9926114765324834:3.3022054486271565E-10
-1.1483394303842611:4.065152837241077:9.027288804094556E-11
-1.120463881809384:4.035177002345974:3.2148782097219334E-10
-1.1080909690018828:4.077742528159463:3.3190903773793695E-10
1.3518812782376541:0.9821559220558521:1.834532631995599E-12
1.3257522128045998:1.0151480212869495:-1.4665905790415974E-13
1.2996231473715452:1.0481401205180472:7.61407438117484E-12
1.2734940819384908:1.0811322197491446:2.51167329492326E-11
1.3108663032081078:0.9749086310315329:-1.135683220703431E-12
1.2847372377750534:1.0073157209999817:6.1812075396093924E-12
1.2586081723419986:1.0397228109684307:2.324002342890097E-11
1.2698513281785608:0.9664913214819164:6.6566914185962246E-12
1.2437222627455067:0.9983134021877169:2.327166462912163E-11
-1.0784366453491068:4.050494329282669:6.44255374954375E-11
-1.0487823216963306:4.023246130405874:1.9156362397680995E-9
-1.0191279980435546:3.99599793152908:5.885541144555924E-9
-1.0686757019363817:4.0910163090392295:-6.368892798820171E-11
-1.0390213782836057:4.0642022862879825:1.4917301388943757E-9
-1.0093670546308295:4.0373882635367355:5.165843408292115E-9
-1.0292604348708805:4.10515844217009:1.3654083117040118E-9
-0.9996061112181047:4.078778595544391:4.743729945711666E-9
-0.9898451678053795:4.120168927552046:4.619200756814578E-9
1.4766409975360784:0.9966773393168764:1.1798735349738793E-13