% Model:              oval_geometry.mph
% Version:            COMSOL 6.2.0.339
% Date:               Mar 4 2025, 10:57
% Dimension:          2
% Nodes:              32457
% Expressions:        1
% Description:        Surface
% X:Y:Dependent variable u
-3.10252224699152:0.545219447080484:0.2644393018315314
-3.1220574502906566:0.522609723540242:0.22559251944763545
-3.141592653589793:0.5:0.1872976095813647
-3.0906920776807887:0.5240795476678282:0.299915625966001
-3.1102272809799247:0.5007370505744888:0.25549301389204176
-3.0788619083700577:0.5029396482551722:0.34115062374595645
-3.0166475003715636:0.5115153679526465:0.5688524279833407
-3.033900998110953:0.5376190707460706:0.46844739771614213
-3.0511544958503425:0.5637227735394947:0.3893314929448129
-3.047754704370811:0.5065402403138225:0.44510728694802554
-3.0650082021102003:0.5333312108973335:0.36870394806073614
-2.989617193914281:0.5633684306006079:0.6029510671916548
-3.0031323471429223:0.5374418992766272:0.5908185966590959
-2.9724709889153296:0.5442303186402206:0.7197590399652404
-2.985986142143971:0.5177024469782011:0.7091474854739797
-2.9553247839163785:0.5250922066798335:0.8656056133313658
-2.9353122704698604:0.5824783585080714:0.7940210501020751
-2.9453185271931197:0.5537852825939524:0.8347469709929101
-2.915190657185709:0.5626542381993287:0.9733736712246029
-2.9251969139089677:0.5334551465406301:1.033203754432597
-2.8950690439015574:0.5428301178905861:1.205677169037138
-2.883868096968116:0.6037802967712019:0.9597207115064679
-2.8894685704348366:0.573305207330894:1.0799196005488483
-2.8598731121714276:0.5838207087897447:1.2098322888912327
-2.8654735856381492:0.5529405847254669:1.38137741316694
-2.8358781273747393:0.5638611208082873:1.5467390811453459
-2.826798356950199:0.6241508340305411:1.1376744378406565
-2.8313382421624693:0.5940059774194142:1.330354035004145
-2.802217254120815:0.6057752951396789:1.43715491914785
-2.806757139333085:0.5753172888010557:1.7069223813096486
-2.777636151291431:0.5873997562488166:1.8430393939380425
-2.769563816038611:0.6475770391902078:1.2610406932781448
-2.7735999836650214:0.6174883977195122:1.5280122672524763
-2.744866872945569:0.6301773903119829:1.5982513268525302
-2.7489030405719785:0.5998588065140941:1.9671406040009198
-2.7201699298525273:0.6127777414337581:2.058049064816555
-2.7130759462796816:0.6729288285483879:1.3139844152767253
-2.7166229380661044:0.642853284991073:1.6473727664050402
-2.6881825736802876:0.6561866642521651:1.6763283958716364
-2.6917295654667104:0.6259513045990751:2.1345964841912135
-2.663289201080893:0.6394444999559423:2.174280210604851
-2.656892811989333:0.6995122612100455:1.3017875021603922
-2.6600910065351133:0.6694783805829939:1.684717401839388
-2.631849049039777:0.6832276684383227:1.6758097158739167
-2.6350472435855568:0.6530965526151515:2.2020974567319853
-2.606805286090221:0.6669430756666:2.1942368484516726
-2.600746180922153:0.726891365109721:1.2379663284770093
-2.603775733506187:0.6969172203881605:1.6499728145111638
-2.575645495898501:0.7108939481110279:1.6118631784813506
-2.578675048482535:0.6808756320777719:2.1803567876196026
-2.5505448108748494:0.694896531112335:2.1349311878972084
-2.544521846285797:0.7546499553667073:1.1406793299637439
-2.5475333285803234:0.7247732432395211:1.5619509953142925
-2.5194349260056255:0.7388139359102823:1.5053873874418302
-2.522446408300152:0.708939785458684:2.090980075668959
-2.4943480057254543:0.7229779164538574:2.020656697155362
-2.48811169694565:0.7825019761506572:1.0269322806215235
-2.491229851335552:0.7527399463022573:1.4415840176176673
-2.46309385769817:0.7667050824696438:1.3765389066578133
-2.466212012088072:0.7369876165312433:1.959033596805751
-2.4380760184506896:0.7509081887886302:1.875765407743434
-2.4313175465127417:0.8101353508535777:0.9114640749508539
-2.4346967824817156:0.780521769821104:1.3083663911907844
-2.4064603786709604:0.7942825700105594:1.2426271929846489
-2.4098396146399343:0.7647505965794901:1.8073521345024857
-2.381603210829179:0.7784297891675411:1.7207019060438211
-2.374074725736508:0.8373431956409684:0.8029662808979549
-2.377838968282844:0.8078864924042548:1.1760388177108787
-2.3494472920692946:0.8213237199565881:1.1147246248516172
-2.35321153461563:0.7919841937026446:1.6534211524816143
-2.3248198584020807:0.805304244272208:1.5699195436488838
-2.316293426264832:0.863902036634939:0.7064635925789796
-2.3205566423334565:0.8346031404535735:1.053535964957982
-2.291963009908179:0.8476047355123508:0.9993430857437943
-2.296226225976803:0.8184532588783463:1.5087562343147194
-2.267632593551526:0.8313074343897625:1.4319659135032492
-2.2579067316143604:0.8896166360817994:0.6235341716785993
-2.262769662582943:0.860462035235781:0.9451495686111743
-2.2339351921211152:0.8729199324810849:0.8990154741148277
-2.2387981230896976:0.8439428578173271:1.3793436321591424
-2.20996365262787:0.8562232288803704:1.3107955514673146
-2.198841569179009:0.9142843973472811:0.5538999556977545
-2.20440261090344:0.8852538131138257:0.8521529138306014
-2.1752945385612446:0.8970577300129207:0.8139541135945534
-2.180855580285675:0.8682340985247767:1.2675317466573415
-2.1517475079434796:0.8798310626785603:1.2074337296797486
-2.139074582990768:0.9376583730969847:0.4964655685056613
-2.1454110454671236:0.9087447178877726:0.7741528851506247
-2.11600472227117:0.9197840280377241:0.7431501752752433
-2.122341184747526:0.8911028461897794:1.173340353235991
-2.092934861551572:0.9019096829784635:1.1210146783476174
-2.0786106375521065:0.9593953032117969:0.45027531625175493
-2.0857727495518392:0.9306524930951302:0.7102554416558584
-2.0560561723237427:0.9408263832008772:0.6854047626114557
-2.063218284323475:0.9123396576352482:1.0951598049606277
-2.033501707095379:0.9222574631899575:1.0496354424578045
-2.0175037631421135:0.9792423625695038:0.413596774449179
-2.0255027351187462:0.9507499128797307:0.6585659412273661
-1.9954714448867348:0.9599524575824163:0.6389231935549623
-2.0034704168633675:0.9317408245507889:1.0309857259378785
-1.9734391266313562:0.9406625525953287:0.9914134904965423
-1.9556534508326813:0.9971854655934629:0.3835907513974976
-1.9645462887320186:0.9689240090943958:0.6162600824704039
-1.9342048874823468:0.9770447271952039:0.6010393933061301
-1.9430977253816841:0.9490867518886783:0.9792003493747943
-1.9127563241320122:0.9569039887969448:0.9446650958323767
-1.8928589492761554:1.0133279370570354:0.3571901320401168
-1.9028076367040838:0.9851159629269901:0.5803386281930292
-1.872175876051146:0.9920604663265893:0.5687126366721617
-1.8821245634790744:0.9641690929553681:0.9381694052129266
-1.8514928028261366:0.9707929955961432:0.9076702608466527
-1.8289141108104403:1.0267139497065396:0.33857872577257947
-1.8402034568182883:0.9987534726513414:0.5538657173022337
-1.8093127549973271:1.0044349338952374:0.545078755879827
-1.8206021010051752:0.9768120514598767:0.9062641533453789
-1.789711399184214:0.9821559180839351:0.8794257393625675
-1.7643618661818543:1.0371591219393992:0.32600474225796106
-1.7770366326830342:1.009657520011667:0.535022111646905
-1.7459285983449258:1.0139920973074807:0.5286418464455548
-1.7586033648461052:0.9868433279930449:0.8824322225776788
-1.7274953305079972:0.9908250726755621:0.8590515314217134
-1.6994004001328331:1.044983332311853:0.3157626935549604
-1.7134478653204153:1.0179042024937075:0.5204236283171985
-1.6821760400971872:1.0208303346593208:0.5161015417332385
-1.6962235052847694:0.9941120292584534:0.8660460529183552
-1.6649516800615414:0.9966773370067888:0.8456705308697535
-3.100089375047471:4.456473095081594:0.12352377264040908
-3.0894756417087645:4.476766723413211:0.10913450411532936
-3.0788619083700577:4.497060351744827:0.09502586802385166
-3.120841014318632:4.4782365475407975:0.1520650832006524
-3.1102272809799247:4.4992629494255105:0.1348193236334418
-3.141592653589793:4.5:0.18729846408429837
-1.6342403535629444:1.050334137158702:0.30605909732942504
-1.649596016812243:1.0235057370827454:0.5082421376026568
-1.618222465084627:1.0249829359885554:0.5058260744553773
-1.6335781283339257:0.9985217680753883:0.8566144058887778
-1.6022045766063095:0.9996317348184086:0.8388404822979925
-3.054396365426988:4.447210395563914:0.07606675465570704
-3.035521932899277:4.467847513805634:0.0592841892481796
-3.0166475003715663:4.488484632047355:0.04491533409483422
-3.0666291368985226:4.472135373654371:0.08501741318115678
-3.0477547043708126:4.493459759686178:0.06597305777941781
-1.5690258630328884:1.0522800822096732:0.30149031755408084
-1.585615219819599:1.0259559085140408:0.5024235071919899
-1.5542069820468276:1.0259559089210248:0.5019258321407285
-1.5707963388335378:1.0000031746823277:0.8532447035605127
-1.5393881010607666:0.9996317356323763:0.8388256967782345
-2.9971379925726036:4.4323617347951325:0.039438414858384264
-2.976231388244492:4.45363476405765:0.028596269357808464
-2.9553247839163808:4.474907793320167:0.020006292629797258
-3.0068927464720847:4.460423183421243:0.042124826090789505
-2.9859861421439744:4.4822975530218:0.030268204399502063
-1.5035021247260294:1.0504916641655377:0.3040910088210031
-1.5214451128933981:1.025061699898957:0.5047734001362876
-1.4900715611310484:1.0235845017412066:0.5060216580467936
-1.5080145492984172:0.9985217696687166:0.8565794386937315
-1.4766409975360675:0.9966773393168755:0.8456360267712727
-2.9389588779429565:4.4163730546373925:0.018973169899118094
-2.917013960922259:4.436771468373403:0.012927284220088668
-2.895069043901562:4.457169882109414:0.00846532957925118
-2.9471418309296684:4.44564042397878:0.019529778030121285
-2.9251969139089717:4.466544853459371:0.013135072644825925
-1.4384775292660765:1.0454077467906346:0.31142991568428163
-1.457559263401072:1.021042543053755:0.512959250836181
-1.4262874381262234:1.0181164114497987:0.516113421858207
-1.4453691722612192:0.9941120321903549:0.8661838023287749
-1.4140973469863702:0.9908250761089628:0.8589576804784643
-2.8816538054561356:4.397598702912583:0.008681935414453877
-2.85876596641544:4.416868791052148:0.00556416913760055
-2.8358781273747447:4.436138879191714:0.003417919937585284
-2.8883614246788487:4.4273842925109985:0.008607669213010592
-2.8654735856381537:4.447059415274534:0.0054222507450184055
-1.374129220746966:1.0374961141116636:0.3217211239733489
-1.394113283866668:1.0141605951103132:0.5253750606270314
-1.3630052494923053:1.009826018083757:0.530863905644863
-1.3829893126120079:0.9868433317797095:0.8824933470520271
-1.3518812782376448:0.9821559220558504:0.8793590279563058
-2.8251408746140014:4.376216281265054:0.0037884094280397546
-2.8013885129527187:4.39440826250812:0.0022850213198363036
-2.7776361512914356:4.412600243751186:0.0013189830688184114
-2.8305095009943733:4.406177580228384:0.003618839441217735
-2.8067571393330897:4.424682711198945:0.0021351795820914233
-1.3102950145779537:1.027085458814637:0.3339777285228176
-1.3310881464077993:1.0046206904352437:0.541441603764722
-1.3001974445734796:0.9989392292641771:0.5495608247518458
-1.3209905764033252:0.9768120555086529:0.906324874805048
-1.2900998745690053:0.9707929997137172:0.9075688048595737
-1.2469379477872016:1.0138761261708569:0.35151103218345975
-1.2685189111781034:0.9923345629422871:0.5641161355379273
-1.237887150468104:0.9853900597889289:0.5752338700460118
-1.2594681138590056:0.9641690972239428:0.9383067036684203
-1.2288363531490065:0.956903993407001:0.9444464487094257
-1.1841931321355244:0.9979976586137029:0.3755612387081944
-1.2065147426422653:0.977450826010352:0.5945362045719089
-1.176173341184176:0.9693301086794792:0.6092757773367226
-1.198494951690917:0.9490867570821103:0.9793710489873492
-1.1681535502328275:0.9406625587452555:0.9913044864529099
-2.7689537009860006:4.352518287974757:0.0015692690358883512
-2.7445618154192672:4.3698702732705:8.929351457518188E-4
-2.7201699298525335:4.387222258566244:4.863169282373956E-4
-2.773294926138718:4.382559265862971:0.0014490198749408762
-2.7489030405719843:4.40014119348591:8.024864568818618E-4
-1.122359254389264:0.9796002887714691:0.40809513209616616
-1.1452564023110456:0.9601314237583622:0.6345498432181526
-1.115225111695568:0.9509288803060012:0.6537848484835349
-1.1381222596173497:0.9317408319168836:1.03106527741966
-1.1080909690018719:0.9222574718405332:1.0496803294514894
-1.0614805118868136:0.9594159373031786:0.44718403639379395
-1.0847857404443428:0.940836704571856:0.6829751370191842
-1.0550691629151896:0.9306628153521181:0.7075330032355106
-1.0783743914727186:0.9123396673930944:1.0951707856408406
-1.0486578139435656:0.9019096934010575:1.1211332719052418
-1.00144147273047:0.9376301838723181:0.4943066479499791
-1.0250496433370178:0.9197699386366878:0.7414512490801062
-0.9956433202679189:0.908730628160134:0.7722561187167941
-1.0192514908744663:0.8911028567440875:1.1733322372339383
-0.9898451678053678:0.8798310724479497:1.2075012348285425
-0.9420748238831851:0.9143890467733521:0.5513277803059973
-0.9659599958442764:0.8971100596106509:0.8119332347093853
-0.9368519241539262:0.8853061411043956:0.8500105075246145
-0.9607370961150177:0.8682341066995858:1.2675449525575682
-0.9316290244246673:0.8562232354354392:1.3107698840799062
-0.8830864701465249:0.8899639765283487:0.6186526333547723
-0.907357747285596:0.8730936059818939:0.8952815918667063
-0.8785232763757945:0.8606357097490004:0.9412394463986644
-0.9027945535148659:0.8439428638520532:1.3793783270381803
-0.8739600826050642:0.8313074429696521:1.4319701847318622
-0.8249627029089548:0.8641381636634646:0.7030752587741765
-0.8494613927570095:0.8477228033165584:0.996781286135008
-0.8208677585452262:0.8347212121933008:1.0508809411372655
-0.845366448393281:0.8184532719193696:1.5087674407489196
-0.8167728141814977:0.805304260723137:1.5699052518673302
-0.7672833896404361:0.8375616708261795:0.7998339531004759
-0.792028101910967:0.8214329657746582:1.112405801156138
-0.763636427311754:0.807995734844226:1.1736450232501707
-0.7883811395822847:0.7919842103383473:1.653443090323831
-0.7599894649830718:0.7784297988622726:1.7206835744626618
-0.7100552733973734:0.8103227750958673:0.9085099040735308
-0.7350223691902227:0.7943762869790699:1.2404720214771978
-0.7067859681461859:0.7806154810953636:1.306145030221966
-0.7317530639390353:0.7647505978647949:1.807365104502625
-0.7035166628949985:0.7509081870948598:1.8757850907773765
-0.653414289512331:0.7825614015145228:1.0259523913545772
-0.6784654762036648:0.7667347943046914:1.3758262320993802
-0.6503294772248978:0.7527696688808629:1.4408639702395294
-0.6753806639162315:0.736987620400567:1.9590314875612773
-0.6472446649374646:0.7229779362472031:2.0206540430499484
-2.7128777076739787:4.327103170140835:6.148933014332117E-4
-2.688083454377438:4.3438293350924475:3.3114477537070526E-4
-2.6632892010808975:4.36055550004406:1.7103830720919798E-4
-2.716523818763256:4.35716271435354:5.514503709769105E-4
-2.6917295654667153:4.374048695400928:2.875989770954415E-4
-0.5970337941444624:0.7547208744780387:1.13963592217339
-0.6221392295409636:0.7388494053626209:1.5046546824199638
-0.5940408242276143:0.7248087181734292:1.561213253350393
-0.6191462596241152:0.7089398193484506:2.090983765581094
-0.591047854310766:0.6948965618688197:2.134921258511735
-0.5408727353165874:0.727043275422854:1.2362072258552794
-0.5659602948136767:0.7109699186458368:1.6106586488869807
-0.5378300697795307:0.6969931656054711:1.6487986197118434
-0.5629176292766201:0.6808756413627359:2.1803645134720564
-0.5347874042424741:0.6669430557880882:2.1942178938611185
-0.4848413740337078:0.6998325415280816:1.298727798538245
-0.509814389138091:0.683387798658085:1.673742059302001
-0.48157242921651067:0.6696385159596825:1.6827873436350989
-0.5065454443208939:0.6530965152709517:2.2021114779258917
-0.4783034843993136:0.6394444903912833:2.1742603410197066
-0.42883787260010114:0.6734409868980795:1.3102523417049141
-0.45357067849970734:0.6564427386446814:1.673819776189246
-0.42513029108230604:0.6431094084285066:1.6451799384740928
-0.4498630969819123:0.6259513501626341:2.134596641627278
-0.42142270956451094:0.6127778299589337:2.058056476803153
-2.6568358162688654:4.3004946647384505:2.2747477147991467E-4
-2.631820551179546:4.316775794535927:1.1629722837668738E-4
-2.6068052860902258:4.333056924333403:5.723395169813969E-5
-2.6600625086748817:4.330525082391255:1.9910250336370992E-4
-2.6350472435855616:4.34690344738485:9.810291590869153E-5
-0.3727479358052948:0.6482996453258656:1.2585121830474295
-0.3970853226849029:0.6305387376423996:1.5965408617482721
-0.3683522333129878:0.617849695782889:1.5268464020469403
-0.39268962019259596:0.5998588929838042:1.9671159988791764
-0.36395653082068075:0.5873997462399124:1.843153160766052
-0.3164535885390163:0.6249258345578601:1.1413250780453603
-0.3402050596798485:0.6061627903988862:1.4394943807477703
-0.31108410067572423:0.5943934021465095:1.3332699709186981
-0.33483557181655654:0.5753171652783572:1.7068713153963402
-0.3057146128124322:0.5638609697351589:1.546950931688493
-2.600735281505652:4.273124765681177:7.925686339282742E-5
-2.5756400461902533:4.289114117284423:3.8582813948531E-5
-2.550544810874855:4.305103468887668:1.817180257557725E-5
-2.603770283797939:4.30309084500729:6.803094715280314E-5
-2.5786750484825407:4.319124367922231:3.177310777194836E-5
-0.259826828011232:0.6037444573101238:0.9706525650291286
-0.2827707204118321:0.5838027135226413:1.2169182948088426
-0.25317520047178016:0.5732873880573062:1.086713220359863
-0.27611909287238023:0.5529405568046886:1.3812600267701287
-0.2465235729323283:0.5428303188044885:1.205555056228966
-0.21639570905651945:0.5334554866374372:1.0332861038506778
-0.18626784518071057:0.5250923417167744:0.8652545609019442
-0.22468364534739677:0.5643391804277986:0.9561334942512065
-0.19455578147158792:0.5554701918839416:0.8201092250102542
-0.20284371776246526:0.5858480420511089:0.7678450094350705
-0.15560657282194043:0.5177020983593836:0.7094228870763194
-0.12494530046317029:0.5115147516032994:0.5684863145708046
-0.16583912860068978:0.5482850715363554:0.6945664253923486
-0.13517785624191964:0.541496276479618:0.5705554555178134
-0.14541041202066898:0.5714778013559365:0.5635816168637772
-2.544521869165609:4.245364531509028:2.596470837292145E-5
-2.519434937445536:4.261193307527588:1.20649936117101E-5
-2.494348005725463:4.2770220835461465:5.457501484578085E-6
-2.547533340020232:4.275234000198348:2.1950593291488652E-5
-2.52244640830016:4.291060214541321:9.74390159661447E-6
-0.09383798969436555:0.5065401185806547:0.4451990709209313
-0.06273067892556074:0.5029407165161346:0.34112025445417876
-0.10624851112647524:0.5364456884431519:0.4644716917470793
-0.07514120035767045:0.5321586708995694:0.3649878344808967
-0.08755172178978017:0.5613766252830042:0.3828010328870555
-2.488106617491478:4.217507295902757:7.98031572540948E-6
-2.463091317971088:4.233299553557066:3.5475296121944544E-6
-2.4380760184506975:4.2490918112113745:1.5458256878060908E-6
-2.4912273116084704:4.247264689724451:6.6707900384756965E-6
-2.46621201208808:4.2630123834687605:2.821653865717812E-6
-0.031365339462776406:0.5007380252166569:0.25546223086564324
7.881416093638125E-15:0.4999972342997724:0.18743074150456174
-0.04604789690466524:0.5295463014052229:0.28566107176532857
-0.014682557441880932:0.5280745602970418:0.21500645625613352
-0.029365114883769746:0.5561518862943112:0.24074144608753126
-2.431393977905205:4.189797196740076:2.2959441074959513E-6
-2.4064985943671973:4.205683703786269:9.784144116311068E-7
-2.381603210829189:4.221570210832462:4.1180990194196797E-7
-2.4347349981779516:4.219444503975725:1.9045612595209203E-6
-2.4098396146399432:4.235249403420514:7.694464849865661E-7
0.06273067892557758:0.5029407165161361:0.09502046278262638
0.04583229911413564:0.5295686614329327:0.11729807842098652
0.028933919302693692:0.5561966063497293:0.14071869787505922
0.03136533946279275:0.5007380252166576:0.13476822418557716
0.014466959651350787:0.5280969203247509:0.16209771739452875
-2.37434377399919:4.16241561170757:6.180269060018977E-7
-2.3495818162006397:4.178555683717683:2.528107133471738E-7
-2.324819858402089:4.194695755727796:1.0282179160952691E-7
-2.3779734924141893:4.191992911270017:5.100737594303738E-7
-2.3532115346156397:4.20801580629736:1.970768956314823E-7
0.12494530046318539:0.5115147516033023:0.044920841931894974
0.10602848469639853:0.5365257141110102:0.059752526797837886
0.08711166892961168:0.5615366766187183:0.07689185486279164
0.09383798969438147:0.5065401185806568:0.06596596737668639
0.07492117392759463:0.5322386965674273:0.0854354490847604
-2.316615003664639:4.135762932209824:1.5401783262272242E-7
-2.292123798608088:4.1522277489100325:6.080250292218299E-8
-2.2676325935515367:4.168692565610242:2.400573952916258E-8
-2.320717431033364:4.16522934396881:1.2724985908901257E-7
-2.296226225976813:4.181546741121658:4.733801944208451E-8
0.1862678451807257:0.5250923417167787:0.020010540463630027
0.16563947818464542:0.548362284350253:0.02863912205022325
0.1450111111885651:0.5716322269837274:0.03947858489929847
0.15560657282195559:0.5177020983593872:0.030269898753881554
0.13497820582587525:0.5415734892935149:0.042156432605414414
-2.258247801861381:4.1099706483979865:3.560576572821681E-8
-2.234105727244631:4.126873709758811:1.3612533784800592E-8
-2.209963652627881:4.143776771119635:5.2355325031395164E-9
-2.2629401977064587:4.139331607004115:2.9570328430581084E-8
-2.2387981230897087:4.156057142182678:1.0642200355886284E-8
0.24652357293234428:0.5428303188044936:0.008466928434596338
0.22453862512352124:0.5645231516353176:0.01299429115220095
0.2025536773146982:0.5862159844661416:0.01913334513661352
0.216395709056535:0.5334554866374419:0.013135127504248096
0.19441076124771195:0.5556541630914602:0.019620421054828377
-2.199410523228138:4.0853791859589474:7.665151717243802E-9
-2.1755790155858143:4.102774061640196:2.8407753527991283E-9
-2.1517475079434902:4.120168937321445:1.0656609209500887E-9
-2.2046870879280096:4.114577978539291:6.409070774520941E-9
-2.1808555802856864:4.131765901475228:2.2347682852797325E-9
0.25957384237901354:0.6039938369074086:0.008780937337028267
0.2530487076556789:0.573412077855951:0.008660281167087256
0.28264422759573005:0.5839274033212865:0.005600693038949225
0.2761190928723953:0.5529405568046938:0.005421989344410253
0.3057146128124465:0.5638609697351643:0.003418309919626055
-2.1400526678751453:4.062133343425091:1.5365368770205394E-9
-2.1164937647133644:4.080111830223316:5.525264483246008E-10
-2.0929348615515835:4.098090317021541:2.0229425347591123E-10
-2.1459000879093177:4.0911511403732685:1.294963647217517E-9
-2.1223411847475373:4.108897153810225:4.3783092348843544E-10
0.31633044075997024:0.6250650083495205:0.0038174504914204326
0.31102252678620834:0.5944629890423424:0.003633946927209147
0.3401434857903323:0.6062323772947196:0.0022952932098995633
0.33483557181657053:0.5753171652783629:0.002135073823548878
0.3639565308206944:0.5873997462399185:0.0013190971550704363
-2.080027742246847:4.04040303134117:2.861303524666476E-10
-2.056764724671119:4.0590727840756085:1.0008223042132485E-10
-2.0335017070953914:4.077742536810047:3.5804869043170506E-11
-2.086481301899215:4.069246674181356:2.4354608604885244E-10
-2.0632182843234874:4.087660342364756:8.007828248071387E-11
0.3727534633827763:0.6484591206988272:0.001573882692026694
0.36835499710173536:0.6179294334693728:0.001451514869787493
0.39708808647365057:0.6306184753288837:8.94615842504338E-4
0.39268962019260967:0.5998588929838107:8.025088844849496E-4
0.4214227095645248:0.6127778299589403:4.863419182001082E-4
-2.019186659946866:4.020294630937942:4.942419219511776E-11
-1.9963128932891174:4.039816039171308:1.6892961814258813E-11
-1.973439126631369:4.059337447404675:5.920243270137256E-12
-2.026344183521129:4.049018583873995:4.2598689058448045E-11
-2.0034704168633803:4.0682591754492154:1.3697778493323611E-11
0.42887710727163353:0.6735342163055069:6.152381281624761E-4
0.4251499084180792:0.6431560231322235:5.516930169755328E-4
0.4535902958354805:0.6564893533483981:3.313182716811178E-4
0.44986309698192617:0.6259513501626406:2.876236318763203E-4
0.47830348439932746:0.6394444903912893:1.710406325102005E-4
-1.9575194871848527:4.002102713382853:7.92019096598208E-12
-1.9351379056584386:4.022599362292956:2.653008752273629E-12
-1.9127563241320242:4.043096011203059:9.107467525556396E-13
-1.9654793069081107:4.030720080393764:6.936916818680897E-12
-1.9430977253816963:4.050913248111326:2.1914968869066202E-12
0.48487650029657714:0.6998780059230598:2.274578319110849E-4
0.4815899923479523:0.6696612481571745:1.99113392336342E-4
0.509831952269532:0.6834105308555771:1.1630883869740718E-4
0.5065454443209072:0.6530965152709577:9.811012338304618E-5
0.534787404242487:0.6669430557880945:5.723658522983362E-5
-1.8949973823566724:3.9861732207547806:1.1684813149077944E-12
-1.8732450925914115:4.00769011257932:3.8650708153227747E-13
-1.8514928028261506:4.02920700440386:1.3080557107502867E-13
-1.9038768532443484:4.01463461597892:1.0453066804207735E-12
-1.882124563479087:4.035830907044636:3.27081353111062E-13
0.5408862945469914:0.7270629426152349:7.931263759665241E-5
0.5378368493947392:0.6970029992016646:6.805995136392852E-5
0.5659670744288853:0.7109797522420307:3.859975111204127E-5
0.5629176292766332:0.6808756413627427:3.17732336379837E-5
0.5910478543107791:0.6948965618688264:1.8173960076871265E-5
-1.8317040051197997:3.9729025055638387:1.589154685304951E-13
-1.8107077021520144:3.995373293739953:5.2091027775151935E-14
-1.789711399184229:4.017844081916067:1.7459960334532187E-14
-1.8415984039729751:4.0010547549838495:1.4602374172145494E-13
-1.82060210100519:4.0231879485401265:4.554774130206594E-14
0.5970342824208019:0.7547119396681111:2.600236924357969E-5
0.5940410683657905:0.7248042507684688:2.1968282739405907E-5
0.6221394736791404:0.7388449379576605:1.2074653695753896E-5
0.619146259624129:0.7089398193484574:9.743346851595158E-6
0.6472446649374788:0.7229779362472097:5.458190894736213E-6
-1.7678831772734076:3.9623789086499754:1.9766500755454135E-14
-1.74768925389071:3.9857769179872076:6.441665215812494E-15
-1.7274953305080127:4.00917492732444:2.194530930260814E-15
-1.7787972882288183:3.9901114952830214:1.879889870191626E-14
-1.758603364846121:4.013156672006957:5.8381878010823455E-15
0.6534437216351682:0.7825075719477029:7.989055988213708E-6
0.6503441932863234:0.7527427540974563:6.674873571263069E-6
0.6784801922650898:0.766707879521284:3.5499156651286593E-6
0.6753806639162452:0.736987620400573:2.821565892932252E-6
0.7035166628950116:0.7509081870948653:1.5456973863614873E-6
-1.7036363370972447:3.954365169423769:2.489769427548415E-15
-1.6842940085794007:3.9788439162084908:9.59532403038836E-16
-1.664951680061557:4.003322662993212:4.3557420811418114E-16
-1.7155658338026287:3.9817700483741048:2.3364018546469886E-15
-1.6962235052847847:4.005887970741548:8.012815076035959E-16
0.7102237537473788:0.8101736529278987:2.2932183720821487E-6
0.7068702083211952:0.780540920011382:1.9033739508205162E-6
0.735106609365231:0.7943017258950885:9.780813065080817E-7
0.7317530639390474:0.7647505978648005:7.695683516359654E-7
0.7599894649830833:0.7784297988622784:4.114403469088547E-7
-1.6386195626267557:3.949210900009387:8.533819071724145E-16
-1.6204120696165403:3.974789582595489:5.283448933387279E-16
-1.6022045766063249:4.000368265181591:3.2893901520561833E-16
-1.6517856213441564:3.9762667815012995:5.993062614121572E-16
-1.6335781283339406:4.0014782319246125:3.3184161412561517E-16
0.7674707711082568:0.8374368019143684:6.130977619462061E-7
0.76373011804567:0.8079333003883233:5.078393729608073E-7
0.7921217926448831:0.8213705313187558:2.5185759514200845E-7
0.7883811395822964:0.7919842103383534:1.9718956358455108E-7
0.8167728141815095:0.8053042607231432:1.0263561616452973E-7
-1.5731132030805837:3.9473973215208473:8.288375228922637E-16
-1.5562506520706842:3.9738827929442353:5.34604361078677E-16
-1.5393881010607848:4.000368264367623:3.3097840780711987E-16
-1.5876588898434543:3.973882793351219:5.340935483504203E-16
-1.5707963388335549:3.9999968253176728:3.2814182365744735E-16
0.8252728048428725:0.8640074821885876:1.5219425787794287E-7
0.821022809512191:0.8346558714558654:1.2640267315943577E-7
0.8496164437239749:0.8476574625791227:6.045040095254213E-8
0.8453664483932936:0.8184532719193754:4.735906540872448E-8
0.8739600826050774:0.8313074429696578:2.3947532784128446E-8
-1.507833059072692:3.9491830134072536:8.468443759415475E-16
-1.4922370283043889:3.9762528370451884:5.904167127154077E-16
-1.4766409975360855:4.003322660683123:4.427871245460727E-16
-1.5236105800667383:3.9747756388874382:5.310039680960614E-16
-1.5080145492984354:4.0014782303312835:3.3333169798183996E-16
0.8835768952520532:0.8897429102428037:3.5156614216399194E-8
0.8787684889285653:0.8605251766062307:2.935640769061334E-8
0.9076029598383669:0.8729830728391241:1.3533373719622274E-8
0.9027945535148791:0.8439428638520585:1.0639974527178579E-8
0.9316290244246807:0.8562232354354445:5.213783201723822E-9
-1.4423792636462514:3.954629160427323:2.2403573338722126E-15
-1.4282383053163192:3.98190204215918:2.169689041151696E-15
-1.4140973469863871:4.009174923891036:2.1824890116132196E-15
-1.4595101305911684:3.9789759105552234:9.343827079474805E-16
-1.4453691722612365:4.0058879678096435:8.130263840697826E-16
0.9426650101842209:0.9143145875444166:7.496925637378729E-9
0.9371470173044507:0.8852689114899306:6.328424677499956E-9
0.9662550889948007:0.8970728299961857:2.8115926643224E-9
0.9607370961150303:0.8682341066995909:2.2347935379327226E-9
0.9898451678053806:0.8798310724479548:1.0579632760727864E-9
-1.377165457046709:3.962394219213291:1.7624062811530186E-14
-1.3645233676421853:3.990119148578719:1.7549320673008264E-14
-1.3518812782376617:4.017844077944147:1.721718747405336E-14
-1.395631402016548:3.9857845715521636:6.1326221415727846E-15
-1.3829893126120245:4.013156668220288:5.873179593062809E-15
1.002416617982763:0.9375515022894335:1.4823691138750695E-9
0.9961308928940718:0.9086912873686941:1.2683607281539956E-9
1.025537215963171:0.9197305978452479:5.430912352997693E-10
1.0192514908744796:0.8911028567440925:4.3814052222451773E-10
1.0486578139435792:0.9019096934010624:1.998599363153979E-10
-1.3122280690574106:3.9728477346617748:1.4587356127794144E-13
-1.3011639718132164:4.001027367474027:1.3904524796069107E-13